LAMMPS data file Created by LigParGen - (Written by Leela S. Dodda)

      18 atoms
      17 bonds
      28 angles
      39 dihedrals
       8 impropers
 
      18 atom types
      17 bond types
      28 angle types
      39 dihedral types
       8 improper types
 
   -1.103370    48.896630 xlo xhi
   -2.809820    47.190180 ylo yhi
   -2.109830    47.890170 zlo zhi

Masses

       1     28.085  
       2     15.999  
       3     15.999  
       4     15.999  
       5     12.011  
       6      1.008  
       7      1.008  
       8     12.011  
       9      1.008  
      10      1.008  
      11     12.011  
      12      1.008  
      13      1.008  
      14     32.060  
      15      1.008  
      16      1.008  
      17      1.008  
      18      1.008  

Pair Coeffs 

       1      0.100  4.0000000 
       2      0.170  3.1200000 
       3      0.170  3.1200000 
       4      0.170  3.1200000 
       5      0.066  3.5000000 
       6      0.030  2.5000000 
       7      0.030  2.5000000 
       8      0.066  3.5000000 
       9      0.030  2.5000000 
      10      0.030  2.5000000 
      11      0.066  3.5000000 
      12      0.030  2.5000000 
      13      0.030  2.5000000 
      14      0.425  3.6000000 
      15      0.0157 1.3
      16      0.0157 1.1
      17      0.0157 1.1
      18      0.0157 1.1

Bond Coeffs 

       1   374.0000     1.6400 
       2   374.0000     1.6400 
       3   374.0000     1.6400 
       4   187.0000     1.8600 
       5   340.0000     1.0900 
       6   340.0000     1.0900 
       7   268.0000     1.5290 
       8   340.0000     1.0900 
       9   340.0000     1.0900 
      10   268.0000     1.5290 
      11   340.0000     1.0900 
      12   340.0000     1.0900 
      13   222.0000     1.8100 
      14   274.0000     1.3360 
      15   553.0000     0.9450 
      16   553.0000     0.9450 
      17   553.0000     0.9450 

Angle Coeffs 

       1     42.500    109.500
       2     42.500    109.500
       3     42.500    109.500
       4     35.000    109.500
       5     35.000    109.500
       6     60.000    112.000
       7     37.500    110.700
       8     37.500    110.700
       9     58.350    112.700
      10     37.500    110.700
      11     37.500    110.700
      12     50.000    108.600
      13     44.000     96.000
      14     46.650    110.930
      15     46.650    110.930
      16     46.650    110.930
      17     37.500    110.700
      18     35.000    109.500
      19     42.500    109.500
      20     42.500    109.500
      21     42.500    109.500
      22     33.000    107.800
      23     37.500    110.700
      24     33.000    107.800
      25     37.500    110.700
      26     33.000    107.800
      27     37.500    110.700
      28     35.000    109.500

Dihedral Coeffs  

       1      0.000      0.000      0.000      0.000 
       2      0.000      0.000      0.450      0.000 
       3      0.000      0.000      0.300      0.000 
       4     -0.759     -0.282      0.680      0.000 
       5      0.750      0.000      0.000      0.000 
       6      0.750      0.000      0.000      0.000 
       7      0.750      0.000      0.000      0.000 
       8      0.000      0.000      0.000      0.000 
       9      0.000      0.000      0.000      0.000 
      10      0.000      0.000      0.000      0.000 
      11      0.000      0.000      0.000      0.000 
      12      0.000      0.000      0.450      0.000 
      13      0.000      0.000      0.300      0.000 
      14      0.000      0.000      0.300      0.000 
      15      0.000      0.000      0.300      0.000 
      16     -0.750      0.000      0.000      0.000 
      17      0.000      0.000      0.000      0.000 
      18      0.000      0.000      0.452      0.000 
      19      0.000      0.000      0.000      0.000 
      20      0.000      0.000      0.000      0.000 
      21      0.000      0.000      0.300      0.000 
      22      0.000      0.000      0.300      0.000 
      23      0.000      0.000      0.300      0.000 
      24      0.750      0.000      0.000      0.000 
      25      0.000      0.000      0.000      0.000 
      26      0.000      0.000      0.000      0.000 
      27      0.000      0.000      0.480      0.000 
      28      0.000      0.000      0.452      0.000 
      29      1.262     -0.198      0.465      0.000 
      30      0.000      0.000      0.480      0.000 
      31      0.000      0.000      0.300      0.000 
      32      0.750      0.000      0.000      0.000 
      33      0.000      0.000      0.300      0.000 
      34      0.000      0.000      0.300      0.000 
      35      0.000      0.000      0.300      0.000 
      36      0.000      0.000      0.300      0.000 
      37     -0.750      0.000      0.000      0.000 
      38     -0.750      0.000      0.000      0.000 
      39      0.750      0.000      0.000      0.000 

Improper Coeffs 

       1      0.000      -1       2 
       2      0.000      -1       2 
       3      0.000      -1       2 
       4      0.000      -1       2 
       5      0.000      -1       2 
       6      0.000      -1       2 
       7      0.000      -1       2 
       8      0.000      -1       2 

Atoms 

     1      1      1 1.96210000    1.000  1.00000  0.00000
     2      1      2 -0.95510000   -0.663  1.00000  0.00000
     3      1      3 -0.99170000    1.682  1.00000 -1.52911
     4      1      4 -0.95860000    1.538  2.42639  0.66830
     5      1      5 -0.66050000    1.478 -0.51504  0.98809
     6      1      6 0.10350000    2.580 -0.59373  0.98176
     7      1      7 0.10350000    1.104 -1.41389  0.46320
     8      1      8 -0.13760000    0.950 -0.48777  2.43436
     9      1      9 0.11260000    1.322  0.41736  2.94442
    10      1     10 0.11260000   -0.150 -0.41122  2.42284
    11      1     11 -0.14240000    1.377 -1.72909  3.21767
    12      1     12 0.10860000    0.985 -2.63728  2.73394
    13      1     13 0.10860000    2.475 -1.79723  3.25539
    14      1     14 -0.28910000    0.712 -1.62496  4.93990
    15      1     15 0.14890000    1.228 -2.80982  5.37210
    16      1     16 0.45360000   -1.103  1.82519 -0.25523
    17      1     17 0.45830000    1.505  0.24525 -2.10983
    18      1     18 0.46260000    2.295  2.84267  0.23012

Bonds 

     1      1      2      1
     2      2      3      1
     3      3      4      1
     4      4      5      1
     5      5      6      5
     6      6      7      5
     7      7      8      5
     8      8      9      8
     9      9     10      8
    10     10     11      8
    11     11     12     11
    12     12     13     11
    13     13     14     11
    14     14     15     14
    15     15     16      2
    16     16     17      3
    17     17     18      4

Angles 

     1      1      2      1      3
     2      2      2      1      4
     3      3      2      1      5
     4      4      1      5      6
     5      5      1      5      7
     6      6      1      5      8
     7      7      5      8      9
     8      8      5      8     10
     9      9      5      8     11
    10     10      8     11     12
    11     11      8     11     13
    12     12      8     11     14
    13     13     11     14     15
    14     14      1      2     16
    15     15      1      3     17
    16     16      1      4     18
    17     17     10      8     11
    18     18     12     11     14
    19     19      3      1      4
    20     20      4      1      5
    21     21      3      1      5
    22     22      9      8     10
    23     23      9      8     11
    24     24      6      5      7
    25     25      6      5      8
    26     26     12     11     13
    27     27      7      5      8
    28     28     13     11     14

Dihedrals

     1      1      6      5      1      2 
     2      2      9      8      5      1 
     3      3     12     11      8      5 
     4      4     15     14     11      8 
     5      5     16      2      1      3 
     6      6     17      3      1      2 
     7      7     18      4      1      2 
     8      8      7      5      1      2 
     9      9      6      5      1      3 
    10     10      8      5      1      3 
    11     11      7      5      1      4 
    12     12     10      8      5      1 
    13     13      9      8      5      6 
    14     14     10      8      5      6 
    15     15      9      8      5      7 
    16     16     17      3      1      5 
    17     17      7      5      1      3 
    18     18     14     11      8      9 
    19     19     11      8      5      1 
    20     20      8      5      1      4 
    21     21     13     11      8      9 
    22     22     12     11      8     10 
    23     23     13     11      8      5 
    24     24     18      4      1      3 
    25     25      8      5      1      2 
    26     26      6      5      1      4 
    27     27     15     14     11     12 
    28     28     14     11      8     10 
    29     29     14     11      8      5 
    30     30     15     14     11     13 
    31     31     13     11      8     10 
    32     32     17      3      1      4 
    33     33     11      8      5      7 
    34     34     11      8      5      6 
    35     35     12     11      8      9 
    36     36     10      8      5      7 
    37     37     18      4      1      5 
    38     38     16      2      1      5 
    39     39     16      2      1      4 

Impropers

     1      1      1      2      3      4 
     2      2      1      2      3      5 
     3      3      5      1      6      7 
     4      4      5      1      6      8 
     5      5      8      9     10      5 
     6      6      8      9     11      5 
     7      7     11     12     13      8 
     8      8     11     12     14      8 

