LAMMPS data file Created by LigParGen - (Written by Leela S. Dodda)

      45 atoms
      47 bonds
      83 angles
     120 dihedrals
      27 impropers
 
      45 atom types
      47 bond types
      83 angle types
     120 dihedral types
      27 improper types
 
   -8.580910    41.419090 xlo xhi
    0.074950    50.074950 ylo yhi
   -5.117440    44.882560 zlo zhi

Masses

       1     12.011  
       2     12.011  
       3     12.011  
       4     12.011  
       5     12.011  
       6     12.011  
       7     12.011  
       8     12.011  
       9     14.007  
      10      1.008  
      11      1.008  
      12      1.008  
      13     12.011  
      14     12.011  
      15     12.011  
      16      1.008  
      17     12.011  
      18      1.008  
      19      1.008  
      20     12.011  
      21      1.008  
      22      1.008  
      23     12.011  
      24      1.008  
      25      1.008  
      26     12.011  
      27      1.008  
      28      1.008  
      29     12.011  
      30      1.008  
      31      1.008  
      32     30.974  
      33     15.999  
      34     15.999  
      35     15.999  
      36      1.008  
      37      1.008  
      38     12.011  
      39      1.008  
      40      1.008  
      41      1.008  
      42     12.011  
      43      1.008  
      44      1.008  
      45      1.008  

Pair Coeffs 

       1      0.070  3.5500000 
       2      0.070  3.5500000 
       3      0.080  3.5000000 
       4      0.070  3.5500000 
       5      0.070  3.5500000 
       6      0.070  3.5500000 
       7      0.070  3.5500000 
       8      0.080  3.5000000 
       9      0.170  3.2500000 
      10      0.030  2.4200000 
      11      0.030  2.4200000 
      12      0.030  2.4200000 
      13      0.070  3.5500000 
      14      0.070  3.5500000 
      15      0.070  3.5500000 
      16      0.030  2.4200000 
      17      0.070  3.5500000 
      18      0.030  2.4200000 
      19      0.030  2.4200000 
      20      0.10937  3.5000000 #Alkyl C
      21      0.030  2.5000000 #Alkyl H
      22      0.030  2.5000000 #Alkyl H
      23      0.10937  3.5000000 #Alkyl C
      24      0.030  2.5000000 #Alkyl H
      25      0.030  2.5000000 #Alkyl H
      26      0.10937  3.5000000 #Alkyl C
      27      0.030  2.5000000 #Alkyl H
      28      0.030  2.5000000 #Alkyl H
      29      0.10937  3.5000000 #Alkyl C
      30      0.030  2.5000000 #Alkyl H
      31      0.030  2.5000000 #Alkyl H
      32      0.200  3.7417800 # P
      33      0.21052  3.06648 # P-[O]-H
      34      0.21052  3.06648 # P-[O]-H
      35      0.21012  2.959930 # P=[O] 
      36      0.046  0.4 # P-O-[H]
      37      0.046 0.4 # P-O-[H]
      38      0.066  3.5000000 
      39      0.030  2.5000000 
      40      0.030  2.5000000 
      41      0.030  2.5000000 
      42      0.066  3.5000000 
      43      0.030  2.5000000 
      44      0.030  2.5000000 
      45      0.030  2.5000000 

Bond Coeffs 

       1   469.0000     1.4000 
       2   469.0000     1.4240 
       3   469.0000     1.4040 
       4   469.0000     1.4000 
       5   469.0000     1.4000 
       6   469.0000     1.4240 
       7   469.0000     1.4240 
       8   436.0000     1.3740 
       9   367.0000     1.0800 
      10   367.0000     1.0800 
      11   367.0000     1.0800 
      12   469.0000     1.4000 
      13   469.0000     1.4000 
      14   469.0000     1.4000 
      15   367.0000     1.0800 
      16   469.0000     1.4040 
      17   367.0000     1.0800 
      18   367.0000     1.0800 
      19   337.0000     1.4750 
      20   340.0000     1.0900 
      21   340.0000     1.0900 
      22   268.0000     1.5290 
      23   340.0000     1.0900 
      24   340.0000     1.0900 
      25   268.0000     1.5290 
      26   340.0000     1.0900 
      27   340.0000     1.0900 
      28   268.0000     1.5290 
      29   340.0000     1.0900 
      30   340.0000     1.0900 
      31   212.0000     1.8430 
      32   642.2000     1.6100 #[P-O]-H  
      33   642.2000     1.6100 #[P-O]-H
      34   975.687     1.481 # P=O
      35   739.520     0.9450 # P-[O-H]
      36   739.520     0.9450 # P-[O-H]
      37   317.0000     1.5100 
      38   340.0000     1.0900 
      39   340.0000     1.0900 
      40   340.0000     1.0900 
      41   317.0000     1.5100 
      42   340.0000     1.0900 
      43   340.0000     1.0900 
      44   340.0000     1.0900 
      45   469.0000     1.4000 
      46   436.0000     1.3740 
      47   469.0000     1.4000 

Angle Coeffs 

       1     63.000    120.000
       2     85.000    134.900
       3     63.000    120.000
       4     63.000    120.000
       5     63.000    120.000
       6     70.000    107.300
       7     70.000    107.700
       8     35.000    120.000
       9     35.000    120.000
      10     35.000    120.000
      11     63.000    120.000
      12     63.000    120.000
      13     63.000    120.000
      14     35.000    120.000
      15     85.000    134.900
      16     35.000    120.000
      17     35.000    120.000
      18     70.000    125.800
      19     35.000    109.500
      20     35.000    109.500
      21     51.650    110.580
      22     37.500    110.700
      23     37.500    110.700
      24     58.350    112.700
      25     37.500    110.700
      26     37.500    110.700
      27     58.350    112.700
      28     37.500    110.700
      29     37.500    110.700
      30     43.000    109.500
      31     200.060 101.560 # C -P -O
      32     200.060 101.560 # C -P -O
      33     200.060 108.3500 # C -P = O
      34     88.295 110.14 # O - P  - O
      35     88.295    110.14 # O - P - O
      36     70.000    120.000
      37     35.000    109.500
      38     35.000    109.500
      39     35.000    109.500
      40     70.000    120.000
      41     35.000    109.500
      42     35.000    109.500
      43     35.000    109.500
      44     37.500    110.700
      45     70.000    125.800
      46     63.000    120.000
      47     33.000    107.800
      48     33.000    107.800
      49     33.000    107.800
      50     35.000    120.000
      51     63.000    120.000
      52     63.000    120.000
      53     85.055    109.500 # H - C - P
      54     33.000    107.800
      55     33.000    107.800
      56     35.000    120.000
      57     33.000    107.800
      58     70.000    125.200
      59     33.000    107.800
      60     70.000    108.700
      61     37.500    110.700
      62     85.055    109.500 # H - C - P
      63     280.217    115.8 # O -P -O
      64    280.217    115.26 # O - P =O?
      65     37.500    110.700
      66     37.500    110.700
      67     35.000    120.000
      68     35.000    120.000
      69     33.000    107.800
      70     37.500    110.700
      71     35.000    120.000
      72     35.000    120.000
      73     70.000    107.300
      74    280.217    108.230  # O - P =O
      75     63.000    120.000
      76     70.000    108.700
      77     70.000    107.700
      78     70.000    120.000
      79     70.000    120.000
      80     33.000    107.800
      81     37.500    110.700
      82     63.000    120.000
      83     33.000    107.800

Dihedral Coeffs  

       1      0.000      7.250      0.000      0.000 
       2      0.000      7.000      0.000      0.000 
       3      0.000      7.250      0.000      0.000 
       4      0.000      2.170      0.000      0.000 
       5      0.000      2.170      0.000      0.000 
       6      0.000      7.250      0.000      0.000 
       7      0.000      7.250      0.000      0.000 
       8      0.000      0.000      0.000      0.000 
       9     -1.013     -0.709      0.473      0.000 
      10      0.000      0.000      0.300      0.000 
      11      0.000      0.000      0.300      0.000 
      12      2.250      0.000      0.000      0.000 
      13      1.500      5.500      0.000      0.000 
      14      1.500      5.500      0.000      0.000 
      15      0.000      0.000      0.000      0.000 
      16      0.000      0.000      0.000      0.000 
      17      0.000      7.250      0.000      0.000 
      18      0.000      0.000      0.300      0.000 
      19      0.000      7.250      0.000      0.000 
      20      0.000      0.000      0.300      0.000 
      21      0.000      7.250      0.000      0.000 
      22      0.000      7.250      0.000      0.000 
      23      0.000      7.250      0.000      0.000 
      24      0.000      0.000      0.000      0.000 
      25      0.000      0.000      0.000      0.000 
      26      0.000      7.250      0.000      0.000 
      27      0.000      0.000      0.300      0.000 
      28      0.000      0.000      0.000      0.000 
      29      0.000      7.250      0.000      0.000 
      30      0.000      7.250      0.000      0.000 
      31      0.000      7.250      0.000      0.000 
      32      0.000      0.000      0.000      0.000 
      33      1.000     -0.350      0.000      0.000 
      34      0.000      7.250      0.000      0.000 
      35      0.000      7.250      0.000      0.000 
      36      0.000      2.170      0.000      0.000 
      37      0.000      7.250      0.000      0.000 
      38      0.000      0.000      0.300      0.000 
      39      0.000      7.250      0.000      0.000 
      40      0.000      0.000      0.000      0.000 
      41      0.000      0.000      0.300      0.000 
      42      0.000      0.000      0.000      0.000 
      43      0.000      0.000      0.000      0.000 
      44      0.000      0.000      0.000      0.000 
      45      0.000      7.250      0.000      0.000 
      46      0.000      0.000      0.250      0.000 
      47      0.000      7.250      0.000      0.000 
      48      0.000      7.000      0.000      0.000 
      49      0.000      0.000      0.300      0.000 
      50      0.000      7.250      0.000      0.000 
      51      0.000      0.000      0.000      0.000 
      52      0.000      0.000      0.300      0.000 
      53      0.000      7.250      0.000      0.000 
      54      0.000      0.000      0.300      0.000 
      55      0.000      7.250      0.000      0.000 
      56      0.000      7.250      0.000      0.000 
      57     -1.013     -0.709      0.473      0.000 
      58      0.000      0.000      0.250      0.000 
      59      0.000      7.250      0.000      0.000 
      60      0.000      7.250      0.000      0.000 
      61      0.000      0.000      0.000      0.000 
      62      0.000      2.170      0.000      0.000 
      63      0.000      7.250      0.000      0.000 
      64      0.000      7.000      0.000      0.000 
      65      1.300     -0.200      0.200      0.000 
      66      2.392     -0.674      0.550      0.000 
      67      0.000      0.000      0.250      0.000 
      68      0.000      7.250      0.000      0.000 
      69      0.000      0.000      0.250      0.000 
      70      0.000      7.250      0.000      0.000 
      71      0.000      7.250      0.000      0.000 
      72      0.000      2.170      0.000      0.000 
      73      0.000      7.250      0.000      0.000 
      74      0.000      2.170      0.000      0.000 
      75      0.000      0.000      0.300      0.000 
      76      0.000      0.000      0.000      0.000 
      77      0.000      2.170      0.000      0.000 
      78      0.000      0.000      0.300      0.000 
      79      0.000      0.000      0.300      0.000 
      80      0.000      7.250      0.000      0.000 
      81      0.000      0.000      0.300      0.000 
      82      0.000      0.000      0.300      0.000 
      83      0.000      0.000      0.300      0.000 
      84      0.000      7.250      0.000      0.000 
      85      0.000      0.000      0.000      0.000 
      86      0.000      0.000      0.000      0.000 
      87      0.000      7.250      0.000      0.000 
      88      0.000      2.170      0.000      0.000 
      89      0.000      0.000      0.300      0.000 
      90      0.000      0.000      0.250      0.000 
      91      0.000      0.000      0.000      0.000 
      92      0.000      7.250      0.000      0.000 
      93      0.000      0.000      0.000      0.000 
      94      0.000      7.250      0.000      0.000 
      95      0.000      7.000      0.000      0.000 
      96      0.000      7.250      0.000      0.000 
      97      0.000      7.250      0.000      0.000 
      98      0.000      7.250      0.000      0.000 
      99      0.000      7.250      0.000      0.000 
     100      0.000      7.250      0.000      0.000 
     101      0.000      7.250      0.000      0.000 
     102      0.845     -0.962      0.713      0.000 
     103      2.250      0.000      0.000      0.000 
     104      0.000      7.250      0.000      0.000 
     105      0.000      0.000      0.300      0.000 
     106      0.000      7.250      0.000      0.000 
     107      2.250      0.000      0.000      0.000 
     108      0.000      7.250      0.000      0.000 
     109      0.000      0.000      0.000      0.000 
     110      0.000      7.250      0.000      0.000 
     111      0.000      7.250      0.000      0.000 
     112      0.000      0.000      0.000      0.000 
     113      0.000      7.250      0.000      0.000 
     114      0.000      0.000      0.300      0.000 
     115      0.000      0.000      0.300      0.000 
     116      0.000      7.250      0.000      0.000 
     117      0.000      0.000      0.300      0.000 
     118      0.000      0.000      0.300      0.000 
     119      0.000      0.000      0.250      0.000 
     120      1.000     -0.350      0.000      0.000 

Improper Coeffs 

       1      2.500      -1       2 
       2      2.500      -1       2 
       3      2.500      -1       2 
       4      2.500      -1       2 
       5      2.500      -1       2 
       6      2.500      -1       2 
       7      2.500      -1       2 
       8      2.500      -1       2 
       9      2.500      -1       2 
      10      0.000      -1       2 
      11      0.000      -1       2 
      12      0.000      -1       2 
      13      0.000      -1       2 
      14      0.000      -1       2 
      15      0.000      -1       2 
      16      0.000      -1       2 
      17      0.000      -1       2 
      18      0.000      -1       2 
      19      0.000      -1       2 
      20      0.000      -1       2 
      21      2.500      -1       2 
      22      0.000      -1       2 
      23      0.000      -1       2 
      24      2.500      -1       2 
      25      0.000      -1       2 
      26      0.000      -1       2 
      27      2.500      -1       2 

Atoms 

     1      1      1 -0.07980000    1.000  1.00000  0.00000
     2      1      2 -0.08910000   -0.398  1.00000  0.00000
     3      1      3 0.14250000   -1.096  1.00000  1.23225
     4      1      4 -0.17650000   -0.409  1.00000  2.44731
     5      1      5 -0.11280000    0.980  1.00000  2.40759
     6      1      6 -0.11840000    1.699  1.00000  1.20384
     7      1      7 -0.08880000   -1.397  1.00132 -1.04444
     8      1      8 0.14200000   -2.657  1.00222 -0.39784
     9      1      9 -0.49640000   -2.463  1.00166  0.98011
    10      1     10 0.15040000    1.540  1.00119 -0.94262
    11      1     11 0.15320000   -0.933  1.00117  3.39712
    12      1     12 0.14540000    1.530  1.00120  3.34472
    13      1     13 -0.08010000   -1.335  1.00308 -2.44067
    14      1     14 -0.11850000   -2.507  1.00556 -3.19238
    15      1     15 -0.11310000   -3.746  1.00623 -2.51998
    16      1     16 0.14560000   -4.659  1.00937 -3.10877
    17      1     17 -0.17540000   -3.843  1.00496 -1.13537
    18      1     18 0.15320000   -4.813  1.00725 -0.65155
    19      1     19 0.15050000   -0.370  1.00371 -2.93881
    20      1     20 0.07270000   -3.502  1.17053  1.97641
    21      1     21 0.10970000   -3.191  0.65333  2.88837
    22      1     22 0.10970000   -4.401  0.65468  1.62683
    23      1     23 -0.20510000   -3.807  2.64365  2.27441
    24      1     24 0.10650000   -2.886  3.13343  2.60881
    25      1     25 0.10650000   -4.100  3.13813  1.34163
    26      1     26 -0.13370000   -4.904  2.80216  3.32886
    27      1     27 0.10470000   -4.606  2.30478  4.25711
    28      1     28 0.10470000   -5.821  2.30860  2.99253
    29      1     29 -0.84880000   -5.202  4.28005  3.62197
    30      1     30 0.13960000   -4.308  4.79517  3.98638
    31      1     31 0.13960000   -5.528  4.80122  2.71692
    32      1     32 2.94090000   -6.485  4.55841  4.85881
    33      1     33 -1.2   -5.932  3.68569  6.11314
    34      1     34 -1.2   -7.721  3.69300  4.25552
    35      1     35 -1.25900000   -6.852  5.94785  5.22057
    36      1     36 0.2   -8.581  4.08174  4.45596
    37      1     37 0.2   -6.163  4.07188  6.96658
    38      1     38 -0.18780000   -2.470  1.00587 -4.70241
    39      1     39 0.08930000   -2.895  0.08349 -5.11317
    40      1     40 0.08930000   -3.049  1.83738 -5.11744
    41      1     41 0.08930000   -1.448  1.09217 -5.07878
    42      1     42 -0.18820000    3.209  0.99837  1.23371
    43      1     43 0.08910000    3.600  0.07495  1.67470
    44      1     44 0.08910000    3.631  1.08546  0.22962
    45      1     45 0.08910000    3.600  1.82856  1.83114

Bonds 

     1      1      2      1
     2      2      3      2
     3      3      4      3
     4      4      5      4
     5      5      6      1
     6      6      7      2
     7      7      8      7
     8      8      9      3
     9      9     10      1
    10     10     11      4
    11     11     12      5
    12     12     13      7
    13     13     14     13
    14     14     15     14
    15     15     16     15
    16     16     17      8
    17     17     18     17
    18     18     19     13
    19     19     20      9
    20     20     21     20
    21     21     22     20
    22     22     23     20
    23     23     24     23
    24     24     25     23
    25     25     26     23
    26     26     27     26
    27     27     28     26
    28     28     29     26
    29     29     30     29
    30     30     31     29
    31     31     32     29
    32     32     33     32
    33     33     34     32
    34     34     35     32
    35     35     36     34
    36     36     37     33
    37     37     38     14
    38     38     39     38
    39     39     40     38
    40     40     41     38
    41     41     42      6
    42     42     43     42
    43     43     44     42
    44     44     45     42
    45     45      6      5
    46     46      9      8
    47     47     17     15

Angles 

     1      1      1      2      3
     2      2      2      3      4
     3      3      3      4      5
     4      4      2      1      6
     5      5      1      2      7
     6      6      2      7      8
     7      7      2      3      9
     8      8      2      1     10
     9      9      3      4     11
    10     10      4      5     12
    11     11      2      7     13
    12     12      7     13     14
    13     13     13     14     15
    14     14     14     15     16
    15     15      7      8     17
    16     16      8     17     18
    17     17      7     13     19
    18     18      3      9     20
    19     19      9     20     21
    20     20      9     20     22
    21     21      9     20     23
    22     22     20     23     24
    23     23     20     23     25
    24     24     20     23     26
    25     25     23     26     27
    26     26     23     26     28
    27     27     23     26     29
    28     28     26     29     30
    29     29     26     29     31
    30     30     26     29     32
    31     31     29     32     33
    32     32     29     32     34
    33     33     29     32     35
    34     34     32     34     36
    35     35     32     33     37
    36     36     13     14     38
    37     37     14     38     39
    38     38     14     38     40
    39     39     14     38     41
    40     40      1      6     42
    41     41      6     42     43
    42     42      6     42     44
    43     43      6     42     45
    44     44     24     23     26
    45     45      8      9     20
    46     46      8     17     15
    47     47     30     29     31
    48     48     39     38     40
    49     49     43     42     44
    50     50     14     13     19
    51     51      4      5      6
    52     52      8      7     13
    53     53     30     29     32
    54     54     43     42     45
    55     55     27     26     28
    56     56      6      1     10
    57     57     44     42     45
    58     58      3      9      8
    59     59     40     38     41
    60     60      4      3      9
    61     61     25     23     26
    62     62     31     29     32
    63     63     33     32     34
    64     64     33     32     35
    65     65     21     20     23
    66     66     22     20     23
    67     67      6      5     12
    68     68     16     15     17
    69     69     39     38     41
    70     70     28     26     29
    71     71      5      4     11
    72     72     15     17     18
    73     73      3      2      7
    74     74     34     32     35
    75     75      1      6      5
    76     76      9      8     17
    77     77      7      8      9
    78     78     15     14     38
    79     79      5      6     42
    80     80     24     23     25
    81     81     27     26     29
    82     82     14     15     17
    83     83     21     20     22

Dihedrals

     1      1      4      3      2      1 
     2      2      5      4      3      2 
     3      3      6      1      2      3 
     4      4      8      7      2      1 
     5      5     14     13      7      2 
     6      6     15     14     13      7 
     7      7     16     15     14     13 
     8      8     21     20      9      3 
     9      9     24     23     20      9 
    10     10     27     26     23     20 
    11     11     30     29     26     23 
    12     12     33     32     29     26 
    13     13     36     34     32     29 
    14     14     37     33     32     29 
    15     15     39     38     14     13 
    16     16     43     42      6      1 
    17     17     14     13      7      8 
    18     18     27     26     23     24 
    19     19     11      4      3      9 
    20     20     29     26     23     25 
    21     21     38     14     15     17 
    22     22     14     15     17      8 
    23     23     17      8      7      2 
    24     24     37     33     32     34 
    25     25     22     20      9      3 
    26     26     18     17     15     14 
    27     27     31     29     26     23 
    28     28     21     20      9      8 
    29     29     12      5      6      1 
    30     30     19     13     14     15 
    31     31     16     15     17      8 
    32     32     41     38     14     15 
    33     33     23     20      9      8 
    34     34     12      5      4     11 
    35     35     42      6      1     10 
    36     36      7      2      1      6 
    37     37      4      5      6      1 
    38     38     30     29     26     27 
    39     39     17     15     14     13 
    40     40     43     42      6      5 
    41     41     28     26     23     25 
    42     42     41     38     14     13 
    43     43     39     38     14     15 
    44     44     44     42      6      1 
    45     45     13      7      8      9 
    46     46     34     32     29     31 
    47     47      9      3      2      1 
    48     48     15     17      8      9 
    49     49     28     26     23     20 
    50     50     18     17      8      9 
    51     51     44     42      6      5 
    52     52     26     23     20     21 
    53     53      7      8      9      3 
    54     54     25     23     20     22 
    55     55     19     13      7      8 
    56     56      8      9      3      2 
    57     57     25     23     20      9 
    58     58     33     32     29     30 
    59     59     19     13      7      2 
    60     60     42      6      5     12 
    61     61     37     33     32     35 
    62     62     13      7      2      1 
    63     63      7      2      3      4 
    64     64     15     17      8      7 
    65     65     29     26     23     20 
    66     66     26     23     20      9 
    67     67     34     32     29     30 
    68     68      6      5      4      3 
    69     69     33     32     29     31 
    70     70     20      9      8     17 
    71     71     20      9      3      4 
    72     72      8      7      2      3 
    73     73     38     14     13      7 
    74     74      9      3      2      7 
    75     75     29     26     23     24 
    76     76     45     42      6      5 
    77     77      9      8      7      2 
    78     78     31     29     26     28 
    79     79     32     29     26     27 
    80     80     38     14     15     16 
    81     81     28     26     23     24 
    82     82     27     26     23     25 
    83     83     32     29     26     28 
    84     84      8      9      3      4 
    85     85     40     38     14     13 
    86     86     36     34     32     35 
    87     87     17      8      7     13 
    88     88     13      7      2      3 
    89     89     26     23     20     22 
    90     90     35     32     29     30 
    91     91     36     34     32     33 
    92     92     10      1      2      3 
    93     93     40     38     14     15 
    94     94     20      9      8      7 
    95     95      9      3      4      5 
    96     96     11      4      5      6 
    97     97     12      5      4      3 
    98     98     20      9      3      2 
    99     99     17      8      9      3 
   100    100     42      6      5      4 
   101    101      5      6      1      2 
   102    102     32     29     26     23 
   103    103     34     32     29     26 
   104    104     18     17     15     16 
   105    105     24     23     20     21 
   106    106     11      4      3      2 
   107    107     35     32     29     26 
   108    108     38     14     13     19 
   109    109     45     42      6      1 
   110    110     10      1      2      7 
   111    111     42      6      1      2 
   112    112     22     20      9      8 
   113    113     18     17      8      7 
   114    114     24     23     20     22 
   115    115     25     23     20     21 
   116    116     10      1      6      5 
   117    117     31     29     26     27 
   118    118     30     29     26     28 
   119    119     35     32     29     31 
   120    120     23     20      9      3 

Impropers

     1      1      2      1      3      7 
     2      2      3      9      2      4 
     3      3      1     10      6      2 
     4      4      4     11      5      3 
     5      5      5      4     12      6 
     6      6      7      2     13      8 
     7      7      8     17      9      7 
     8      8     17     18     15      8 
     9      9     13     19     14      7 
    10     10      9      3     20      8 
    11     11     20      9     21     22 
    12     12     20      9     21     23 
    13     13     23     25     20     24 
    14     14     23     26     20     24 
    15     15     26     27     28     23 
    16     16     26     27     29     23 
    17     17     29     26     30     31 
    18     18     29     26     30     32 
    19     19     32     33     34     29 
    20     20     32     33     35     29 
    21     21     14     13     38     15 
    22     22     38     14     39     40 
    23     23     38     41     39     14 
    24     24      6      1     42      5 
    25     25     42     43     44      6 
    26     26     42     43     45      6 
    27     27     15     17     14     16 

