LAMMPS data file Created by LigParGen - (Written by Leela S. Dodda)

      35640 atoms
14580 bonds
25020 angles
35640 dihedrals
7740 impropers

65 atom types
64 bond types
111 angle types
159 dihedral types
35 improper types
 
0.0 125.10 xlo xhi
0.0  41.7 ylo yhi
-15.0 270.0 zlo zhi

Masses

1     12.011
2     12.011
3     12.011
4     12.011
5     12.011
6     12.011
7     12.011
8     12.011
9     14.007
10      1.008
11      1.008
12      1.008
13     12.011
14     12.011
15     12.011
16      1.008
17     12.011
18      1.008
19      1.008
20     12.011
21      1.008
22      1.008
23     12.011
24      1.008
25      1.008
26     12.011
27      1.008
28      1.008
29     12.011
30      1.008
31      1.008
32     30.974
33     15.999
34     15.999
35     15.999
36      1.008
37      1.008
38     12.011
39      1.008
40      1.008
41      1.008
42     12.011
43      1.008
44      1.008
45      1.008
46 28.085
47 15.999
48 15.999
49 15.999
50 12.011
51 1.008
52 1.008
53 12.011
54 1.008
55 1.008
56 12.011
57 1.008
58 1.008
59 32.060
60 1.008
61 1.008
62 1.008
63 1.008
64 58.6934 # Ni
65 15.9994 # O

Atoms 

1	1	1	-0.0796	91.467113	10.970066	166.558849
2	1	2	-0.0891	92.598444	11.593758	167.092321
3	1	3	0.1425	93.421668	10.889671	168.005185
4	1	4	-0.1765	93.129868	9.574062	168.369529
5	1	5	-0.1128	91.999247	8.982743	167.819457
6	1	6	-0.1184	91.155397	9.661243	166.916674
7	1	7	-0.0888	93.194548	12.899399	166.920775
8	1	8	0.142	94.35165	12.926604	167.737555
9	1	9	-0.4964	94.465807	11.714119	168.407163
10	1	10	0.1504	90.831822	11.507834	165.860554
11	1	11	0.1532	93.76122	9.020193	169.056095
12	1	12	0.1454	91.758295	7.958924	168.092264
13	1	13	-0.0801	92.860432	14.02183	166.157876
14	1	14	-0.1185	93.664802	15.157554	166.194512
15	1	15	-0.1131	94.81547	15.151064	167.008996
16	1	16	0.1456	95.445899	16.035802	167.031028
17	1	17	-0.1754	95.174861	14.053173	167.781017
18	1	18	0.1532	96.071299	14.079904	168.391289
19	1	19	0.1505	91.972249	14.005685	165.532356
20	1	20	0.0727	95.587855	11.310001	169.230398
21	1	21	0.1097	95.225351	10.607108	169.985702
22	1	22	0.1097	95.946209	12.186008	169.778257
23	1	23	-0.2051	96.727937	10.682836	168.418644
24	1	24	0.1065	96.336636	9.818236	167.871345
25	1	25	0.1065	97.06025	11.403186	167.663098
26	1	26	-0.1337	97.902696	10.262786	169.303708
27	1	27	0.1047	97.566011	9.544521	170.057771
28	1	28	0.1047	98.289409	11.129007	169.849588
29	1	29	-0.8488	99.039588	9.635932	168.483214
30	1	30	0.1396	98.692277	8.749345	167.94447
31	1	31	0.1396	99.41815	10.33924	167.735581
32	1	32	2.9409	100.467668	9.111233	169.452127
33	1	33	-1.0614	99.780428	8.143173	170.561788
34	1	34	-1.0612	100.84394	10.472663	170.255675
35	1	35	-1.259	101.623714	8.492642	168.761329
36	1	36	0.4706	101.791182	10.562483	170.41525
37	1	37	0.4707	100.354103	7.414805	170.828579
38	1	38	-0.1878	93.324594	16.387419	165.386265
39	1	39	0.0893	93.091863	17.24022	166.032911
40	1	40	0.0893	94.158315	16.690113	164.744648
41	1	41	0.0893	92.458378	16.21873	164.742492
42	1	42	-0.1882	89.935604	8.964473	166.361524
43	1	43	0.0891	89.210243	8.737236	167.150064
44	1	44	0.0891	89.426359	9.578549	165.615327
45	1	45	0.0891	90.197564	8.014883	165.883982
46	1	1	-0.080	105.754379	26.1312	104.410987
47	1	2	-0.089	104.943662	25.00248	104.261907
48	1	3	0.143	105.530258	23.758402	103.922896
49	1	4	-0.177	106.910223	23.637234	103.750453
50	1	5	-0.113	107.687657	24.777989	103.907987
51	1	6	-0.118	107.131812	26.031619	104.234959
52	1	7	-0.089	103.522649	24.768797	104.386729
53	1	8	0.142	103.313334	23.393831	104.117633
54	1	9	-0.496	104.531756	22.797748	103.814885
55	1	10	0.150	105.307785	27.08764	104.668243
56	1	11	0.153	107.371946	22.686707	103.505382
57	1	12	0.145	108.763645	24.700643	103.777786
58	1	13	-0.080	102.432947	25.584994	104.702752
59	1	14	-0.119	101.149821	25.047887	104.760435
60	1	15	-0.113	100.974273	23.673978	104.497715
61	1	16	0.146	99.973053	23.255036	104.549992
62	1	17	-0.175	102.035316	22.83556	104.178681
63	1	18	0.153	101.865131	21.781114	103.989129
64	1	19	0.151	102.589211	26.640572	104.907056
65	1	20	0.073	104.747487	21.378838	103.614452
66	1	21	0.110	105.598113	21.251835	102.938982
67	1	22	0.110	103.879697	20.969247	103.089925
68	1	23	-0.205	104.987336	20.620839	104.925931
69	1	24	0.107	105.852058	21.061214	105.434369
70	1	25	0.107	104.127057	20.77755	105.585893
71	1	26	-0.134	105.212901	19.125668	104.694793
72	1	27	0.105	106.072042	18.973817	104.033968
73	1	28	0.105	104.347548	18.690239	104.185444
74	1	29	-0.849	105.452212	18.374358	106.012724
75	1	30	0.140	106.32861	18.768438	106.535731
76	1	31	0.140	104.598228	18.483885	106.687722
77	1	32	2.941	105.72777	16.601159	105.830111
78	1	33	-1.061	106.952113	16.562079	104.762289
79	1	34	-1.061	104.416784	16.145203	104.98502
80	1	35	-1.259	105.969347	15.777651	107.038323
81	1	36	0.471	104.122171	15.253257	105.205102
82	1	37	0.471	107.547957	15.816711	104.904399
83	1	38	-0.188	99.952794	25.907237	105.092423
84	1	39	0.089	99.259819	25.973074	104.246826
85	1	40	0.089	99.388539	25.501171	105.938067
86	1	41	0.089	100.248831	26.925869	105.353154
87	1	42	-0.188	108.031651	27.23578	104.382807
88	1	43	0.089	108.514037	27.49451	103.434153
89	1	44	0.089	107.475901	28.11449	104.717831
90	1	45	0.089	108.830289	27.054065	105.109133
91	1	1	-0.080	42.878952	26.480676	161.782219
92	1	2	-0.089	42.377589	25.210906	161.482531
93	1	3	0.143	41.298445	24.68787	162.236611
94	1	4	-0.177	40.715324	25.428163	163.266493
95	1	5	-0.113	41.236094	26.68755	163.537203
96	1	6	-0.118	42.315656	27.230523	162.811126
97	1	7	-0.089	42.716103	24.209618	160.49648
98	1	8	0.142	41.826561	23.125758	160.698271
99	1	9	-0.496	40.989299	23.41619	161.768863
100	1	10	0.150	43.708308	26.884026	161.207864
101	1	11	0.153	39.879064	25.043909	163.840747
102	1	12	0.145	40.793167	27.277014	164.335347
103	1	13	-0.080	43.670181	24.140299	159.477448
104	1	14	-0.119	43.740681	23.015439	158.660171
105	1	15	-0.113	42.835348	21.957105	158.878724
106	1	16	0.146	42.887246	21.082912	158.235468
107	1	17	-0.175	41.876619	21.993162	159.883752
108	1	18	0.153	41.190885	21.163652	160.019512
109	1	19	0.151	44.355921	24.968441	159.321418
110	1	20	0.073	39.860556	22.61398	162.195967
111	1	21	0.110	39.713324	22.769923	163.268328
112	1	22	0.110	40.12269	21.559074	162.07591
113	1	23	-0.205	38.573953	22.936964	161.426291
114	1	24	0.107	38.344765	24.000654	161.553649
115	1	25	0.107	38.755704	22.785173	160.356658
116	1	26	-0.134	37.394154	22.081073	161.890364
117	1	27	0.105	37.217123	22.234621	162.959455
118	1	28	0.105	37.627945	21.019496	161.762819
119	1	29	-0.849	36.11022	22.410753	161.114798
120	1	30	0.140	35.832896	23.461255	161.243032
121	1	31	0.140	36.245116	22.241977	160.042313
122	1	32	2.941	34.666935	21.444194	161.600808
123	1	33	-1.061	34.612116	21.709261	163.203156
124	1	34	-1.061	35.216116	19.922837	161.443849
125	1	35	-1.259	33.373515	21.68035	160.916999
126	1	36	0.471	34.5279	19.303433	161.172746
127	1	37	0.471	33.711779	21.717502	163.549747
128	1	38	-0.188	44.765835	22.909892	157.555864
129	1	39	0.089	45.478429	22.100311	157.74658
130	1	40	0.089	44.295671	22.70169	156.589435
131	1	41	0.089	45.339903	23.833225	157.450364
132	1	42	-0.188	42.841258	28.602506	163.161813
133	1	43	0.089	43.27346	28.620973	164.168015
134	1	44	0.089	43.618597	28.925486	162.465639
135	1	45	0.089	42.046427	29.354963	163.14078
136	1	1	-0.080	45.869761	14.638306	180.968799
137	1	2	-0.089	47.112246	14.110503	180.606653
138	1	3	0.143	48.170631	14.985471	180.258795
139	1	4	-0.177	47.997557	16.370376	180.287213
140	1	5	-0.113	46.75085	16.862292	180.653654
141	1	6	-0.118	45.67576	16.016673	180.995081
142	1	7	-0.089	47.633728	12.766903	180.495914
143	1	8	0.142	48.984197	12.88932	180.086031
144	1	9	-0.496	49.290991	14.23494	179.922603
145	1	10	0.150	45.054841	13.970318	181.233569
146	1	11	0.153	48.805097	17.050179	180.037217
147	1	12	0.145	46.59969	17.937963	180.681415
148	1	13	-0.080	47.08866	11.497817	180.709968
149	1	14	-0.119	47.871031	10.360567	180.528918
150	1	15	-0.113	49.21453	10.514637	180.130499
151	1	16	0.146	49.825667	9.626259	179.996398
152	1	17	-0.175	49.786552	11.761042	179.907323
153	1	18	0.153	50.825991	11.843361	179.608095
154	1	19	0.151	46.052506	11.399844	181.021722
155	1	20	0.073	50.608191	14.769394	179.640891
156	1	21	0.110	50.48895	15.708538	179.093402
157	1	22	0.110	51.11957	14.083737	178.959482
158	1	23	-0.205	51.4456	14.990085	180.906635
159	1	24	0.107	50.903046	15.668383	181.574267
160	1	25	0.107	51.536075	14.037354	181.439838
161	1	26	-0.134	52.831717	15.554166	180.589883
162	1	27	0.105	52.736636	16.504883	180.05606
163	1	28	0.105	53.369477	14.874334	179.921666
164	1	29	-0.849	53.663438	15.772081	181.862452
165	1	30	0.140	53.165302	16.469547	182.542386
166	1	31	0.140	53.80031	14.833432	182.407531
167	1	32	2.941	55.31593	16.436883	181.578157
168	1	33	-1.061	54.993646	17.770822	180.707798
169	1	34	-1.061	55.924008	15.373597	180.51025
170	1	35	-1.259	56.205283	16.68657	182.737038
171	1	36	0.471	56.875389	15.247535	180.609156
172	1	37	0.471	55.618135	18.486645	180.876352
173	1	38	-0.188	47.306855	8.976324	180.746055
174	1	39	0.089	47.284886	8.401733	179.813881
175	1	40	0.089	47.907897	8.404764	181.460516
176	1	41	0.089	46.285449	9.014163	181.131448
177	1	42	-0.188	44.342098	16.615061	181.375675
178	1	43	0.089	43.8892	17.151858	180.53525
179	1	44	0.089	43.633072	15.847553	181.69418
180	1	45	0.089	44.442811	17.332047	182.196758
181	1	1	-0.080	89.822122	32.847907	235.543802
182	1	2	-0.089	90.089823	31.486092	235.708999
183	1	3	0.143	89.111834	30.646015	236.295993
184	1	4	-0.177	87.875528	31.154053	236.698692
185	1	5	-0.113	87.640652	32.511575	236.518388
186	1	6	-0.118	88.597916	33.374351	235.946789
187	1	7	-0.089	91.221505	30.644214	235.392765
188	1	8	0.142	90.877373	29.332599	235.802637
189	1	9	-0.496	89.6085	29.350072	236.369366
190	1	10	0.150	90.570798	33.495847	235.096517
191	1	11	0.153	87.113563	30.517491	237.135668
192	1	12	0.145	86.683089	32.922851	236.825977
193	1	13	-0.080	92.467279	30.880126	234.80464
194	1	14	-0.119	93.361916	29.830321	234.61554
195	1	15	-0.113	92.987125	28.534229	235.024369
196	1	16	0.146	93.683829	27.714862	234.869681
197	1	17	-0.175	91.757857	28.265914	235.613815
198	1	18	0.153	91.499134	27.254977	235.910156
199	1	19	0.151	92.735843	31.885227	234.491512
200	1	20	0.073	88.856503	28.183105	236.784948
201	1	21	0.110	88.185652	28.476937	237.597091
202	1	22	0.110	89.554186	27.458865	237.214677
203	1	23	-0.205	88.062072	27.545936	235.63823
204	1	24	0.107	87.383351	28.297195	235.219743
205	1	25	0.107	88.757131	27.275228	234.83586
206	1	26	-0.134	87.275184	26.316439	236.095378
207	1	27	0.105	86.583362	26.591042	236.897778
208	1	28	0.105	87.95674	25.569379	236.514012
209	1	29	-0.849	86.482777	25.684714	234.941387
210	1	30	0.140	85.771218	26.39892	234.516532
211	1	31	0.140	87.149283	25.373762	234.131458
212	1	32	2.941	85.524225	24.225709	235.395253
213	1	33	-1.061	84.638591	24.782077	236.638994
214	1	34	-1.061	86.657723	23.280072	236.074749
215	1	35	-1.259	84.721079	23.535585	234.358438
216	1	36	0.471	86.496199	22.340101	235.929269
217	1	37	0.471	83.767927	24.369774	236.691418
218	1	38	-0.188	94.717627	30.056829	233.98919
219	1	39	0.089	95.52629	29.851319	234.698707
220	1	40	0.089	94.875637	29.403202	233.125367
221	1	41	0.089	94.835792	31.087695	233.64775
222	1	42	-0.188	88.283685	34.843129	235.78703
223	1	43	0.089	88.156096	35.333599	236.757979
224	1	44	0.089	89.080375	35.369518	235.256529
225	1	45	0.089	87.356315	34.99713	235.226085
226	1	1	-0.080	64.731788	14.711811	73.361869
227	1	2	-0.089	65.567176	14.132001	72.402994
228	1	3	0.143	65.35499	12.787701	72.009814
229	1	4	-0.177	64.312577	12.035324	72.553896
230	1	5	-0.113	63.499316	12.642305	73.502959
231	1	6	-0.118	63.691935	13.974594	73.921726
232	1	7	-0.089	66.695029	14.613145	71.637543
233	1	8	0.142	67.114555	13.538335	70.815632
234	1	9	-0.496	66.311809	12.431948	71.066699
235	1	10	0.150	64.893142	15.741707	73.667948
236	1	11	0.153	64.131509	11.009981	72.249534
237	1	12	0.145	62.682964	12.070608	73.935878
238	1	13	-0.080	67.367992	15.836426	71.572721
239	1	14	-0.119	68.439811	16.000056	70.699421
240	1	15	-0.113	68.827693	14.915412	69.886673
241	1	16	0.146	69.660005	15.047048	69.200659
242	1	17	-0.175	68.181766	13.685934	69.92794
243	1	18	0.153	68.502234	12.874555	69.283183
244	1	19	0.151	67.050858	16.6622	72.203536
245	1	20	0.073	66.343461	11.184788	70.329401
246	1	21	0.110	66.018988	10.381688	70.997009
247	1	22	0.110	67.382891	10.96353	70.071361
248	1	23	-0.205	65.473318	11.215977	69.066886
249	1	24	0.107	64.443151	11.452834	69.354705
250	1	25	0.107	65.812277	12.036913	68.425514
251	1	26	-0.134	65.519143	9.891992	68.302162
252	1	27	0.105	65.181261	9.074675	68.946911
253	1	28	0.105	66.549987	9.658582	68.017997
254	1	29	-0.849	64.64541	9.931769	67.039749
255	1	30	0.140	63.600765	10.13716	67.291622
256	1	31	0.140	64.974166	10.723055	66.359533
257	1	32	2.941	64.642526	8.406571	66.076796
258	1	33	-1.061	64.218157	7.306715	67.195282
259	1	34	-1.061	66.23042	8.165212	65.829608
260	1	35	-1.259	63.832611	8.333948	64.837819
261	1	36	0.471	66.416505	7.74214	64.982742
262	1	37	0.471	63.697343	6.582377	66.828013
263	1	38	-0.188	69.190055	17.308208	70.613146
264	1	39	0.089	70.228079	17.197502	70.944559
265	1	40	0.089	69.220285	17.687351	69.586636
266	1	41	0.089	68.728264	18.0785	71.23494
267	1	42	-0.188	62.777878	14.572779	74.964917
268	1	43	0.089	62.882946	14.063912	75.929073
269	1	44	0.089	62.992427	15.631314	75.128326
270	1	45	0.089	61.726148	14.490835	74.672444
271	1	1	-0.080	81.002695	20.515852	154.958874
272	1	2	-0.089	82.398418	20.448752	154.928036
273	1	3	0.143	83.123668	21.328001	154.086795
274	1	4	-0.177	82.46655	22.2738	153.297883
275	1	5	-0.113	81.078856	22.315564	153.353575
276	1	6	-0.118	80.32934	21.447072	154.17297
277	1	7	-0.089	83.3753	19.631699	155.611844
278	1	8	0.142	84.647704	20.053316	155.153605
279	1	9	-0.496	84.48216	21.063528	154.213608
280	1	10	0.150	80.442904	19.841293	155.600753
281	1	11	0.153	83.012242	22.962008	152.66122
282	1	12	0.145	80.552029	23.046387	152.74609
283	1	13	-0.080	83.28603	18.606102	156.557191
284	1	14	-0.119	84.441689	18.00756	157.051582
285	1	15	-0.113	85.694006	18.45552	156.584147
286	1	16	0.146	86.595167	17.992	156.97625
287	1	17	-0.175	85.81783	19.470837	155.643753
288	1	18	0.153	86.79793	19.795719	155.311181
289	1	19	0.151	82.311802	18.278177	156.908972
290	1	20	0.073	85.549874	21.840217	153.616315
291	1	21	0.110	85.22448	22.167756	152.624958
292	1	22	0.110	86.405812	21.179699	153.451876
293	1	23	-0.205	85.960308	23.04593	154.470638
294	1	24	0.107	85.081614	23.680599	154.62962
295	1	25	0.107	86.267465	22.688754	155.459712
296	1	26	-0.134	87.087661	23.853246	153.82476
297	1	27	0.105	86.777168	24.206714	152.836567
298	1	28	0.105	87.962669	23.215158	153.666411
299	1	29	-0.849	87.492443	25.058365	154.686455
300	1	30	0.140	86.644655	25.732097	154.842177
301	1	31	0.140	87.83421	24.737157	155.674852
302	1	32	2.941	88.819103	26.066821	153.996162
303	1	33	-1.061	88.237832	26.417486	152.519699
304	1	34	-1.061	89.980708	24.95971	153.739763
305	1	35	-1.259	89.289418	27.256001	154.74513
306	1	36	0.471	90.869374	25.317288	153.854695
307	1	37	0.471	88.514214	27.287108	152.206379
308	1	38	-0.188	84.375429	16.892449	158.068298
309	1	39	0.089	84.760794	15.952806	157.658238
310	1	40	0.089	84.971941	17.122639	158.956877
311	1	41	0.089	83.35036	16.709552	158.398465
312	1	42	-0.188	78.82159	21.537649	154.180689
313	1	43	0.089	78.399261	21.274108	153.205104
314	1	44	0.089	78.381992	20.864652	154.920324
315	1	45	0.089	78.480962	22.551557	154.413827
316	1	1	-0.080	60.416438	24.987384	223.468168
317	1	2	-0.089	60.310467	26.375008	223.597637
318	1	3	0.143	59.032046	26.970662	223.730271
319	1	4	-0.177	57.874101	26.19124	223.749947
320	1	5	-0.113	58.014648	24.814937	223.62119
321	1	6	-0.118	59.27226	24.194292	223.47741
322	1	7	-0.089	61.274192	27.451521	223.640311
323	1	8	0.142	60.535555	28.650132	223.796847
324	1	9	-0.496	59.179014	28.349344	223.826013
325	1	10	0.150	61.395039	24.527183	223.363475
326	1	11	0.153	56.891095	26.6351	223.86586
327	1	12	0.145	57.12319	24.193813	223.635162
328	1	13	-0.080	62.66902	27.503591	223.56792
329	1	14	-0.119	63.329222	28.726052	223.657066
330	1	15	-0.113	62.567638	29.900777	223.822817
331	1	16	0.146	63.084937	30.853277	223.899183
332	1	17	-0.175	61.180244	29.88431	223.896356
333	1	18	0.153	60.625796	30.806881	224.031257
334	1	19	0.151	63.238766	26.586686	223.445127
335	1	20	0.073	58.114111	29.291594	224.10559
336	1	21	0.110	57.208618	28.948781	223.597147
337	1	22	0.110	58.37404	30.250596	223.648747
338	1	23	-0.205	57.851658	29.467062	225.606389
339	1	24	0.107	57.607857	28.490122	226.038052
340	1	25	0.107	58.777751	29.796918	226.089851
341	1	26	-0.134	56.725222	30.464567	225.882003
342	1	27	0.105	55.80264	30.132013	225.39608
343	1	28	0.105	56.97219	31.438424	225.447859
344	1	29	-0.849	56.468982	30.634324	227.386729
345	1	30	0.140	56.192904	29.681435	227.847915
346	1	31	0.140	57.366444	30.992313	227.899871
347	1	32	2.941	55.152842	31.796158	227.800771
348	1	33	-1.061	53.908284	31.213216	226.933569
349	1	34	-1.061	55.627773	33.133853	227.009713
350	1	35	-1.259	54.820896	32.036842	229.224914
351	1	36	0.471	55.379278	33.946216	227.467004
352	1	37	0.471	53.056039	31.350849	227.364306
353	1	38	-0.188	64.834945	28.813385	223.57495
354	1	39	0.089	65.156501	29.363237	222.683967
355	1	40	0.089	65.255296	29.33375	224.441502
356	1	41	0.089	65.29353	27.822905	223.531626
357	1	42	-0.188	59.355902	22.693111	223.332376
358	1	43	0.089	58.880151	22.352806	222.406399
359	1	44	0.089	60.392108	22.347895	223.314085
360	1	45	0.089	58.852192	22.180757	224.158306
361	1	1	-0.080	96.603287	16.574776	45.129748
362	1	2	-0.089	96.697746	17.969242	45.135838
363	1	3	0.143	97.927442	18.586672	45.472561
364	1	4	-0.177	99.053971	17.823229	45.783702
365	1	5	-0.113	98.926715	16.439739	45.766296
366	1	6	-0.118	97.71387	15.796777	45.445257
367	1	7	-0.089	95.764728	19.035648	44.849968
368	1	8	0.142	96.471839	20.250375	45.026574
369	1	9	-0.496	97.772373	19.967016	45.426381
370	1	10	0.150	95.661092	16.097682	44.87469
371	1	11	0.153	100.004574	18.284914	46.028552
372	1	12	0.145	99.794331	15.830889	46.005526
373	1	13	-0.080	94.42248	19.067362	44.461557
374	1	14	-0.119	93.786177	20.285992	44.241827
375	1	15	-0.113	94.518802	21.477833	44.415724
376	1	16	0.146	94.022552	22.427834	44.23706
377	1	17	-0.175	95.853175	21.481628	44.802989
378	1	18	0.153	96.388877	22.417531	44.920705
379	1	19	0.151	93.876114	18.137851	44.327774
380	1	20	0.073	98.836734	20.938769	45.57755
381	1	21	0.110	99.536508	20.568547	46.332006
382	1	22	0.110	98.408217	21.858139	45.986311
383	1	23	-0.205	99.570948	21.228671	44.262654
384	1	24	0.107	99.976598	20.28936	43.871081
385	1	25	0.107	98.843979	21.583888	43.524058
386	1	26	-0.134	100.69018	22.255878	44.441556
387	1	27	0.105	101.413121	21.897748	45.18113
388	1	28	0.105	100.280834	23.191894	44.834214
389	1	29	-0.849	101.420017	22.540312	43.120528
390	1	30	0.140	101.86499	21.627533	42.713414
391	1	31	0.140	100.72884	22.926103	42.365315
392	1	32	2.941	102.758063	23.743736	43.242671
393	1	33	-1.061	103.668484	23.110858	44.430688
394	1	34	-1.061	102.003787	25.013463	43.920625
395	1	35	-1.259	103.530461	24.093677	42.027253
396	1	36	0.471	102.360299	25.860317	43.626455
397	1	37	0.471	104.609579	23.289328	44.315417
398	1	38	-0.188	92.334834	20.350965	43.828361
399	1	39	0.089	91.719837	20.829257	44.598167
400	1	40	0.089	92.204399	20.93014	42.908617
401	1	41	0.089	91.92203	19.355207	43.651478
402	1	42	-0.188	97.639313	14.288153	45.453573
403	1	43	0.089	97.796305	13.884671	46.459624
404	1	44	0.089	96.667114	13.931561	45.105866
405	1	45	0.089	98.403611	13.844323	44.807621
406	1	1	-0.080	26.965778	8.964945	63.110196
407	1	2	-0.089	26.135756	9.715682	63.947423
408	1	3	0.143	24.762359	9.855797	63.62977
409	1	4	-0.177	24.219288	9.241569	62.499938
410	1	5	-0.113	25.071207	8.500738	61.690034
411	1	6	-0.118	26.443917	8.351703	61.974494
412	1	7	-0.089	26.352362	10.446713	65.175488
413	1	8	0.142	25.100285	10.996279	65.545676
414	1	9	-0.496	24.150978	10.652278	64.590686
415	1	10	0.150	28.020197	8.857516	63.349078
416	1	11	0.153	23.166221	9.329689	62.254919
417	1	12	0.145	24.664188	8.015691	60.806998
418	1	13	-0.080	27.472065	10.673628	65.980641
419	1	14	-0.119	27.355753	11.429089	67.144244
420	1	15	-0.113	26.094528	11.95438	67.49187
421	1	16	0.146	26.004138	12.537928	68.404004
422	1	17	-0.175	24.962371	11.749425	66.712926
423	1	18	0.153	24.005624	12.162615	67.01402
424	1	19	0.151	28.434589	10.25606	65.698525
425	1	20	0.073	22.728923	10.914609	64.685352
426	1	21	0.110	22.327589	11.007168	63.672279
427	1	22	0.110	22.58953	11.8912	65.157361
428	1	23	-0.205	21.97296	9.830839	65.463831
429	1	24	0.107	22.142108	8.86428	64.976658
430	1	25	0.107	22.405061	9.751694	66.46743
431	1	26	-0.134	20.474426	10.12447	65.553363
432	1	27	0.105	20.047273	10.204199	64.548846
433	1	28	0.105	20.31015	11.091356	66.039178
434	1	29	-0.849	19.725182	9.034714	66.334225
435	1	30	0.140	19.847135	8.056943	65.858831
436	1	31	0.140	20.110904	8.947132	67.354252
437	1	32	2.941	17.94823	9.303991	66.487352
438	1	33	-1.061	17.504496	9.492685	64.935488
439	1	34	-1.061	17.891011	10.79694	67.126564
440	1	35	-1.259	17.126359	8.313432	67.22194
441	1	36	0.471	17.139087	10.921382	67.718108
442	1	37	0.471	16.616983	9.158815	64.757588
443	1	38	-0.188	28.549862	11.696463	68.029788
444	1	39	0.089	28.799801	12.762533	68.05448
445	1	40	0.089	28.361302	11.387687	69.062982
446	1	41	0.089	29.436085	11.160394	67.682703
447	1	42	-0.188	27.318385	7.540318	61.047923
448	1	43	0.089	27.388793	8.00164	60.057061
449	1	44	0.089	28.334577	7.442852	61.43662
450	1	45	0.089	26.922305	6.530051	60.903453
451	1	1	-0.080	106.6351	7.875981	89.453864
452	1	2	-0.089	106.0086	9.079798	89.788253
453	1	3	0.143	106.744553	10.091722	90.452436
454	1	4	-0.177	108.09317	9.912341	90.765128
455	1	5	-0.113	108.686182	8.705011	90.416943
456	1	6	-0.118	107.977246	7.675612	89.764863
457	1	7	-0.089	104.672153	9.597298	89.599652
458	1	8	0.142	104.65956	10.899075	90.158199
459	1	9	-0.496	105.911836	11.178238	90.692426
460	1	10	0.150	106.073166	7.096487	88.946888
461	1	11	0.153	108.670457	10.685884	91.260224
462	1	12	0.145	109.735446	8.549606	90.652699
463	1	13	-0.080	103.511332	9.085573	89.013028
464	1	14	-0.119	102.351253	9.854121	88.970906
465	1	15	-0.113	102.372323	11.14988	89.525908
466	1	16	0.146	101.467998	11.750951	89.485957
467	1	17	-0.175	103.508376	11.687675	90.118107
468	1	18	0.153	103.491364	12.691349	90.529323
469	1	19	0.151	103.516379	8.086534	88.586061
470	1	20	0.073	106.330937	12.456752	91.230734
471	1	21	0.110	107.099719	12.276553	91.987341
472	1	22	0.110	105.483567	12.902358	91.759272
473	1	23	-0.205	106.85398	13.414947	90.153536
474	1	24	0.107	107.691282	12.936998	89.633272
475	1	25	0.107	106.068936	13.565194	89.404324
476	1	26	-0.134	107.291393	14.758312	90.739951
477	1	27	0.105	108.074418	14.603435	91.488787
478	1	28	0.105	106.452548	15.231442	91.25991
479	1	29	-0.849	107.813618	15.711549	89.654917
480	1	30	0.140	108.671768	15.278887	89.132146
481	1	31	0.140	107.044361	15.909045	88.902491
482	1	32	2.941	108.351677	17.322463	90.262342
483	1	33	-1.061	109.422669	16.905094	91.411065
484	1	34	-1.061	107.038214	17.828355	91.074532
485	1	35	-1.259	108.874268	18.321442	89.300449
486	1	36	0.471	106.923942	18.785744	91.040678
487	1	37	0.471	110.145869	17.538114	91.495123
488	1	38	-0.188	101.080323	9.324525	88.349746
489	1	39	0.089	100.285802	9.213585	89.095408
490	1	40	0.089	100.700565	9.998136	87.57488
491	1	41	0.089	101.235253	8.346543	87.888468
492	1	42	-0.188	108.678404	6.382411	89.42196
493	1	43	0.089	108.989385	5.84385	90.323527
494	1	44	0.089	108.032147	5.714372	88.848108
495	1	45	0.089	109.580445	6.559556	88.827541
496	1	1	-0.080	62.27432	37.6033	234.241365
497	1	2	-0.089	61.430958	36.565404	234.647575
498	1	3	0.143	61.807246	35.221364	234.405251
499	1	4	-0.177	63.017193	34.914897	233.780088
500	1	5	-0.113	63.833276	35.969899	233.390831
501	1	6	-0.118	63.481272	37.317461	233.609079
502	1	7	-0.089	60.153698	36.521416	235.322955
503	1	8	0.142	59.81459	35.152738	235.458912
504	1	9	-0.496	60.810717	34.37631	234.878898
505	1	10	0.150	61.987824	38.635444	234.423033
506	1	11	0.153	63.322465	33.889178	233.602723
507	1	12	0.145	64.778845	35.74846	232.90344
508	1	13	-0.080	59.288894	37.500484	235.819984
509	1	14	-0.119	58.104437	37.132286	236.452213
510	1	15	-0.113	57.799038	35.762082	236.581588
511	1	16	0.146	56.877539	35.476343	237.081467
512	1	17	-0.175	58.635445	34.763992	236.097047
513	1	18	0.153	58.372739	33.718712	236.220026
514	1	19	0.151	59.544271	38.551289	235.715128
515	1	20	0.073	60.889736	32.930378	234.934165
516	1	21	0.110	61.420456	32.580199	234.044409
517	1	22	0.110	59.875876	32.527006	234.861134
518	1	23	-0.205	61.579299	32.418811	236.20494
519	1	24	0.107	62.585275	32.849412	236.257664
520	1	25	0.107	61.034779	32.796023	237.07752
521	1	26	-0.134	61.653461	30.891502	236.245739
522	1	27	0.105	62.196761	30.518987	235.371709
523	1	28	0.105	60.646719	30.465616	236.191319
524	1	29	-0.849	62.345161	30.387764	237.521074
525	1	30	0.140	63.365926	30.774757	237.593073
526	1	31	0.140	61.81059	30.721197	238.415481
527	1	32	2.941	62.474882	28.593276	237.649525
528	1	33	-1.061	63.207555	28.210797	236.250351
529	1	34	-1.061	60.928716	28.132374	237.455354
530	1	35	-1.259	63.125215	27.997661	238.840579
531	1	36	0.471	60.709562	27.338811	237.958373
532	1	37	0.471	63.788875	27.444986	236.330345
533	1	38	-0.188	57.147575	38.168557	236.992704
534	1	39	0.089	56.190598	38.146696	236.460442
535	1	40	0.089	56.928814	38.000021	238.052008
536	1	41	0.089	57.552416	39.178592	236.896984
537	1	42	-0.188	64.409172	38.418636	233.153019
538	1	43	0.089	64.508712	38.432811	232.06239
539	1	44	0.089	64.048201	39.40235	233.461624
540	1	45	0.089	65.415588	38.292586	233.56488
541	1	1	-0.080	26.705613	29.973968	146.122959
542	1	2	-0.089	26.356609	31.222953	146.644232
543	1	3	0.143	25.556445	32.104	145.875954
544	1	4	-0.177	25.096087	31.738109	144.609891
545	1	5	-0.113	25.459308	30.488835	144.122113
546	1	6	-0.118	26.262686	29.594738	144.858751
547	1	7	-0.089	26.630946	31.897023	147.893166
548	1	8	0.142	25.984439	33.155617	147.824418
549	1	9	-0.496	25.357665	33.279536	146.590188
550	1	10	0.150	27.321444	29.296662	146.708121
551	1	11	0.153	24.470594	32.39855	144.018853
552	1	12	0.145	25.108747	30.188422	143.138475
553	1	13	-0.080	27.346834	31.549514	149.042183
554	1	14	-0.119	27.417543	32.432341	150.116352
555	1	15	-0.113	26.755361	33.67338	150.022543
556	1	16	0.146	26.805809	34.358301	150.864579
557	1	17	-0.175	26.037213	34.050559	148.894472
558	1	18	0.153	25.533706	35.010745	148.858826
559	1	19	0.151	27.846276	30.586237	149.097492
560	1	20	0.073	24.484063	34.366313	146.195531
561	1	21	0.110	24.544426	34.479697	145.109504
562	1	22	0.110	24.876184	35.294843	146.619825
563	1	23	-0.205	23.029537	34.150758	146.631371
564	1	24	0.107	22.669377	33.208767	146.203444
565	1	25	0.107	23.002408	34.027028	147.719554
566	1	26	-0.134	22.122865	35.307135	146.206425
567	1	27	0.105	22.154158	35.428115	145.119109
568	1	28	0.105	22.487096	36.246137	146.634771
569	1	29	-0.849	20.668623	35.083368	146.646639
570	1	30	0.140	20.264261	34.163885	146.213108
571	1	31	0.140	20.598333	34.984705	147.733944
572	1	32	2.941	19.52963	36.403415	146.184378
573	1	33	-1.061	19.774199	36.508862	144.581302
574	1	34	-1.061	20.263682	37.711462	146.80963
575	1	35	-1.259	18.100229	36.290788	146.559117
576	1	36	0.471	19.638967	38.383238	147.108374
577	1	37	0.471	18.977505	36.758005	144.09756
578	1	38	-0.188	28.189629	32.086582	151.367714
579	1	39	0.089	29.043818	32.757234	151.509748
580	1	40	0.089	27.564121	32.170779	152.262162
581	1	41	0.089	28.577157	31.065904	151.332109
582	1	42	-0.188	26.629913	28.254298	144.267194
583	1	43	0.089	27.256806	28.367604	143.376268
584	1	44	0.089	27.182336	27.637835	144.979959
585	1	45	0.089	25.741171	27.691615	143.964018
586	1	1	-0.080	29.564138	26.552517	112.423476
587	1	2	-0.089	28.374985	26.187981	111.785885
588	1	3	0.143	28.339362	25.020826	110.983866
589	1	4	-0.177	29.47105	24.217703	110.832211
590	1	5	-0.113	30.636263	24.607183	111.481153
591	1	6	-0.118	30.705273	25.768484	112.277444
592	1	7	-0.089	27.047234	26.757956	111.744995
593	1	8	0.142	26.267935	25.910044	110.920074
594	1	9	-0.496	27.066114	24.8758	110.445967
595	1	10	0.150	29.596044	27.448486	113.037175
596	1	11	0.153	29.451424	23.313883	110.23265
597	1	12	0.145	31.525971	23.992689	111.373898
598	1	13	-0.080	26.460691	27.884756	112.327907
599	1	14	-0.119	25.115879	28.167882	112.105322
600	1	15	-0.113	24.363475	27.299943	111.287989
601	1	16	0.146	23.312298	27.518622	111.120975
602	1	17	-0.175	24.916081	26.173045	110.691944
603	1	18	0.153	24.306017	25.522681	110.074209
604	1	19	0.151	27.055887	28.538914	112.958956
605	1	20	0.073	26.600245	23.735775	109.682208
606	1	21	0.110	27.42115	23.386138	109.049893
607	1	22	0.110	25.815517	24.075406	109.000442
608	1	23	-0.205	26.083415	22.595374	110.567894
609	1	24	0.107	26.884942	22.286239	111.247728
610	1	25	0.107	25.273159	22.978153	111.198094
611	1	26	-0.134	25.596265	21.401549	109.744908
612	1	27	0.105	26.408192	21.0234	109.115901
613	1	28	0.105	24.796885	21.715114	109.066279
614	1	29	-0.849	25.080587	20.264461	110.639216
615	1	30	0.140	25.865237	19.908677	111.313494
616	1	31	0.140	24.248426	20.602749	111.263698
617	1	32	2.941	24.485576	18.814358	109.746647
618	1	33	-1.061	25.762821	18.452202	108.809484
619	1	34	-1.061	23.393908	19.469168	108.736575
620	1	35	-1.259	23.965018	17.656527	110.511333
621	1	36	0.471	22.653125	18.878783	108.553586
622	1	37	0.471	25.85406	17.504679	108.652401
623	1	38	-0.188	24.457233	29.382116	112.716382
624	1	39	0.089	24.13548	30.092945	111.94776
625	1	40	0.089	23.567556	29.10942	113.29301
626	1	41	0.089	25.135577	29.911978	113.388934
627	1	42	-0.188	32.005854	26.141626	112.948882
628	1	43	0.089	32.78208	26.38065	112.214088
629	1	44	0.089	31.888528	27.013433	113.596507
630	1	45	0.089	32.389629	25.322309	113.565184
631	1	1	-0.080	77.992073	18.291179	94.717049
632	1	2	-0.089	78.713118	19.114027	95.586825
633	1	3	0.143	78.330837	19.200049	96.948154
634	1	4	-0.177	77.252794	18.462286	97.440344