LAMMPS data file

12960 atoms
2 atom types

0.0 125.1 xlo xhi
0.0 41.7 ylo yhi
-10.0 50.00 zlo zhi

Masses

1 58.6934
2 15.999

Atoms

1 0 1 2.0 0.0 0.0 0.0
2 0 1 2.0 2.085 2.085 0.0
3 0 1 2.0 2.085 0.0 2.085
4 0 1 2.0 0.0 2.085 2.085
5 0 1 2.0 0.0 0.0 4.169999999999999
6 0 1 2.0 2.085 2.085 4.169999999999999
7 0 1 2.0 2.085 0.0 6.254999999999999
8 0 1 2.0 0.0 2.085 6.254999999999999
9 0 1 2.0 0.0 0.0 8.339999999999998
10 0 1 2.0 2.085 2.085 8.339999999999998
11 0 1 2.0 2.085 0.0 10.424999999999997
12 0 1 2.0 0.0 2.085 10.424999999999997
13 0 1 2.0 0.0 0.0 12.509999999999998
14 0 1 2.0 2.085 2.085 12.509999999999998
15 0 1 2.0 2.085 0.0 14.594999999999997
16 0 1 2.0 0.0 2.085 14.594999999999997
17 0 1 2.0 0.0 0.0 16.679999999999996
18 0 1 2.0 2.085 2.085 16.679999999999996
19 0 1 2.0 2.085 0.0 18.764999999999997
20 0 1 2.0 0.0 2.085 18.764999999999997
21 0 1 2.0 0.0 0.0 20.849999999999994
22 0 1 2.0 2.085 2.085 20.849999999999994
23 0 1 2.0 2.085 0.0 22.934999999999995
24 0 1 2.0 0.0 2.085 22.934999999999995
25 0 1 2.0 0.0 0.0 25.019999999999996
26 0 1 2.0 2.085 2.085 25.019999999999996
27 0 1 2.0 2.085 0.0 27.104999999999997
28 0 1 2.0 0.0 2.085 27.104999999999997
29 0 1 2.0 0.0 4.170000000000001 0.0
30 0 1 2.0 2.085 6.255000000000002 0.0
31 0 1 2.0 2.085 4.170000000000001 2.085
32 0 1 2.0 0.0 6.255000000000002 2.085
33 0 1 2.0 0.0 4.170000000000001 4.169999999999999
34 0 1 2.0 2.085 6.255000000000002 4.169999999999999
35 0 1 2.0 2.085 4.170000000000001 6.254999999999999
36 0 1 2.0 0.0 6.255000000000002 6.254999999999999
37 0 1 2.0 0.0 4.170000000000001 8.339999999999998
38 0 1 2.0 2.085 6.255000000000002 8.339999999999998
39 0 1 2.0 2.085 4.170000000000001 10.424999999999997
40 0 1 2.0 0.0 6.255000000000002 10.424999999999997
41 0 1 2.0 0.0 4.170000000000001 12.509999999999998
42 0 1 2.0 2.085 6.255000000000002 12.509999999999998
43 0 1 2.0 2.085 4.170000000000001 14.594999999999997
44 0 1 2.0 0.0 6.255000000000002 14.594999999999997
45 0 1 2.0 0.0 4.170000000000001 16.679999999999996
46 0 1 2.0 2.085 6.255000000000002 16.679999999999996
47 0 1 2.0 2.085 4.170000000000001 18.764999999999997
48 0 1 2.0 0.0 6.255000000000002 18.764999999999997
49 0 1 2.0 0.0 4.170000000000001 20.849999999999994
50 0 1 2.0 2.085 6.255000000000002 20.849999999999994
51 0 1 2.0 2.085 4.170000000000001 22.934999999999995
52 0 1 2.0 0.0 6.255000000000002 22.934999999999995
53 0 1 2.0 0.0 4.170000000000001 25.019999999999996
54 0 1 2.0 2.085 6.255000000000002 25.019999999999996
55 0 1 2.0 2.085 4.170000000000001 27.104999999999997
56 0 1 2.0 0.0 8.340000000000002 0.0
57 0 1 2.0 2.085 10.425 0.0
58 0 1 2.0 2.085 8.340000000000002 2.085
59 0 1 2.0 0.0 10.425 2.085
60 0 1 2.0 0.0 8.340000000000002 4.169999999999999
61 0 1 2.0 2.085 10.425 4.169999999999999
62 0 1 2.0 2.085 8.340000000000002 6.254999999999999
63 0 1 2.0 0.0 10.425 6.254999999999999
64 0 1 2.0 0.0 8.340000000000002 8.339999999999998
65 0 1 2.0 2.085 10.425 8.339999999999998
66 0 1 2.0 2.085 8.340000000000002 10.424999999999997
67 0 1 2.0 0.0 10.425 10.424999999999997
68 0 1 2.0 0.0 8.340000000000002 12.509999999999998
69 0 1 2.0 2.085 10.425 12.509999999999998
70 0 1 2.0 2.085 8.340000000000002 14.594999999999997
71 0 1 2.0 0.0 10.425 14.594999999999997
72 0 1 2.0 0.0 8.340000000000002 16.679999999999996
73 0 1 2.0 2.085 10.425 16.679999999999996
74 0 1 2.0 2.085 8.340000000000002 18.764999999999997
75 0 1 2.0 0.0 10.425 18.764999999999997
76 0 1 2.0 0.0 8.340000000000002 20.849999999999994
77 0 1 2.0 2.085 10.425 20.849999999999994
78 0 1 2.0 2.085 8.340000000000002 22.934999999999995
79 0 1 2.0 0.0 12.510000000000003 0.0
80 0 1 2.0 2.085 14.595000000000002 0.0
81 0 1 2.0 2.085 12.510000000000003 2.085
82 0 1 2.0 0.0 14.595000000000002 2.085
83 0 1 2.0 0.0 12.510000000000003 4.169999999999999
84 0 1 2.0 2.085 14.595000000000002 4.169999999999999
85 0 1 2.0 2.085 12.510000000000003 6.254999999999999
86 0 1 2.0 0.0 14.595000000000002 6.254999999999999
87 0 1 2.0 0.0 12.510000000000003 8.339999999999998
88 0 1 2.0 2.085 14.595000000000002 8.339999999999998
89 0 1 2.0 2.085 12.510000000000003 10.424999999999997
90 0 1 2.0 0.0 14.595000000000002 10.424999999999997
91 0 1 2.0 0.0 12.510000000000003 12.509999999999998
92 0 1 2.0 2.085 14.595000000000002 12.509999999999998
93 0 1 2.0 2.085 12.510000000000003 14.594999999999997
94 0 1 2.0 0.0 14.595000000000002 14.594999999999997
95 0 1 2.0 0.0 12.510000000000003 16.679999999999996
96 0 1 2.0 2.085 14.595000000000002 16.679999999999996
97 0 1 2.0 2.085 12.510000000000003 18.764999999999997
98 0 1 2.0 0.0 16.680000000000003 0.0
99 0 1 2.0 2.085 18.765000000000004 0.0
100 0 1 2.0 2.085 16.680000000000003 2.085
101 0 1 2.0 0.0 18.765000000000004 2.085
102 0 1 2.0 0.0 16.680000000000003 4.169999999999999
103 0 1 2.0 2.085 18.765000000000004 4.169999999999999
104 0 1 2.0 2.085 16.680000000000003 6.254999999999999
105 0 1 2.0 0.0 18.765000000000004 6.254999999999999
106 0 1 2.0 0.0 16.680000000000003 8.339999999999998
107 0 1 2.0 2.085 18.765000000000004 8.339999999999998
108 0 1 2.0 2.085 16.680000000000003 10.424999999999997
109 0 1 2.0 0.0 18.765000000000004 10.424999999999997
110 0 1 2.0 0.0 16.680000000000003 12.509999999999998
111 0 1 2.0 2.085 18.765000000000004 12.509999999999998
112 0 1 2.0 2.085 16.680000000000003 14.594999999999997
113 0 1 2.0 0.0 20.849999999999998 0.0
114 0 1 2.0 2.085 22.935000000000002 0.0
115 0 1 2.0 2.085 20.849999999999998 2.085
116 0 1 2.0 0.0 22.935000000000002 2.085
117 0 1 2.0 0.0 20.849999999999998 4.169999999999999
118 0 1 2.0 2.085 22.935000000000002 4.169999999999999
119 0 1 2.0 2.085 20.849999999999998 6.254999999999999
120 0 1 2.0 0.0 22.935000000000002 6.254999999999999
121 0 1 2.0 0.0 20.849999999999998 8.339999999999998
122 0 1 2.0 2.085 22.935000000000002 8.339999999999998
123 0 1 2.0 2.085 20.849999999999998 10.424999999999997
124 0 1 2.0 0.0 22.935000000000002 10.424999999999997
125 0 1 2.0 2.085 22.935000000000002 12.509999999999998
126 0 1 2.0 0.0 25.020000000000007 0.0
127 0 1 2.0 2.085 27.105000000000008 0.0
128 0 1 2.0 2.085 25.020000000000007 2.085
129 0 1 2.0 0.0 27.105000000000008 2.085
130 0 1 2.0 0.0 25.020000000000007 4.169999999999999
131 0 1 2.0 2.085 27.105000000000008 4.169999999999999
132 0 1 2.0 2.085 25.020000000000007 6.254999999999999
133 0 1 2.0 0.0 27.105000000000008 6.254999999999999
134 0 1 2.0 0.0 25.020000000000007 8.339999999999998
135 0 1 2.0 2.085 27.105000000000008 8.339999999999998
136 0 1 2.0 2.085 25.020000000000007 10.424999999999997
137 0 1 2.0 0.0 27.105000000000008 10.424999999999997
138 0 1 2.0 0.0 25.020000000000007 12.509999999999998
139 0 1 2.0 2.085 27.105000000000008 12.509999999999998
140 0 1 2.0 2.085 25.020000000000007 14.594999999999997
141 0 1 2.0 0.0 27.105000000000008 14.594999999999997
142 0 1 2.0 2.085 27.105000000000008 16.679999999999996
143 0 1 2.0 0.0 29.190000000000005 0.0
144 0 1 2.0 2.085 31.275000000000006 0.0
145 0 1 2.0 2.085 29.190000000000005 2.085
146 0 1 2.0 0.0 31.275000000000006 2.085
147 0 1 2.0 0.0 29.190000000000005 4.169999999999999
148 0 1 2.0 2.085 31.275000000000006 4.169999999999999
149 0 1 2.0 2.085 29.190000000000005 6.254999999999999
150 0 1 2.0 0.0 31.275000000000006 6.254999999999999
151 0 1 2.0 0.0 29.190000000000005 8.339999999999998
152 0 1 2.0 2.085 31.275000000000006 8.339999999999998
153 0 1 2.0 2.085 29.190000000000005 10.424999999999997
154 0 1 2.0 0.0 31.275000000000006 10.424999999999997
155 0 1 2.0 0.0 29.190000000000005 12.509999999999998
156 0 1 2.0 2.085 31.275000000000006 12.509999999999998
157 0 1 2.0 2.085 29.190000000000005 14.594999999999997
158 0 1 2.0 0.0 31.275000000000006 14.594999999999997
159 0 1 2.0 0.0 29.190000000000005 16.679999999999996
160 0 1 2.0 2.085 31.275000000000006 16.679999999999996
161 0 1 2.0 2.085 29.190000000000005 18.764999999999997
162 0 1 2.0 0.0 31.275000000000006 18.764999999999997
163 0 1 2.0 2.085 31.275000000000006 20.849999999999994
164 0 1 2.0 0.0 33.36000000000001 0.0
165 0 1 2.0 2.085 35.44500000000001 0.0
166 0 1 2.0 2.085 33.36000000000001 2.085
167 0 1 2.0 0.0 35.44500000000001 2.085
168 0 1 2.0 0.0 33.36000000000001 4.169999999999999
169 0 1 2.0 2.085 35.44500000000001 4.169999999999999
170 0 1 2.0 2.085 33.36000000000001 6.254999999999999
171 0 1 2.0 0.0 35.44500000000001 6.254999999999999
172 0 1 2.0 0.0 33.36000000000001 8.339999999999998
173 0 1 2.0 2.085 35.44500000000001 8.339999999999998
174 0 1 2.0 2.085 33.36000000000001 10.424999999999997
175 0 1 2.0 0.0 35.44500000000001 10.424999999999997
176 0 1 2.0 0.0 33.36000000000001 12.509999999999998
177 0 1 2.0 2.085 35.44500000000001 12.509999999999998
178 0 1 2.0 2.085 33.36000000000001 14.594999999999997
179 0 1 2.0 0.0 35.44500000000001 14.594999999999997
180 0 1 2.0 0.0 33.36000000000001 16.679999999999996
181 0 1 2.0 2.085 35.44500000000001 16.679999999999996
182 0 1 2.0 2.085 33.36000000000001 18.764999999999997
183 0 1 2.0 0.0 35.44500000000001 18.764999999999997
184 0 1 2.0 0.0 33.36000000000001 20.849999999999994
185 0 1 2.0 2.085 35.44500000000001 20.849999999999994
186 0 1 2.0 2.085 33.36000000000001 22.934999999999995
187 0 1 2.0 0.0 35.44500000000001 22.934999999999995
188 0 1 2.0 2.085 35.44500000000001 25.019999999999996
189 0 1 2.0 0.0 37.53 0.0
190 0 1 2.0 2.085 39.615 0.0
191 0 1 2.0 2.085 37.53 2.085
192 0 1 2.0 0.0 39.615 2.085
193 0 1 2.0 0.0 37.53 4.169999999999999
194 0 1 2.0 2.085 39.615 4.169999999999999
195 0 1 2.0 2.085 37.53 6.254999999999999
196 0 1 2.0 0.0 39.615 6.254999999999999
197 0 1 2.0 0.0 37.53 8.339999999999998
198 0 1 2.0 2.085 39.615 8.339999999999998
199 0 1 2.0 2.085 37.53 10.424999999999997
200 0 1 2.0 0.0 39.615 10.424999999999997
201 0 1 2.0 0.0 37.53 12.509999999999998
202 0 1 2.0 2.085 39.615 12.509999999999998
203 0 1 2.0 2.085 37.53 14.594999999999997
204 0 1 2.0 0.0 39.615 14.594999999999997
205 0 1 2.0 0.0 37.53 16.679999999999996
206 0 1 2.0 2.085 39.615 16.679999999999996
207 0 1 2.0 2.085 37.53 18.764999999999997
208 0 1 2.0 0.0 39.615 18.764999999999997
209 0 1 2.0 0.0 37.53 20.849999999999994
210 0 1 2.0 2.085 39.615 20.849999999999994
211 0 1 2.0 2.085 37.53 22.934999999999995
212 0 1 2.0 0.0 39.615 22.934999999999995
213 0 1 2.0 0.0 37.53 25.019999999999996
214 0 1 2.0 2.085 39.615 25.019999999999996
215 0 1 2.0 2.085 37.53 27.104999999999997
216 0 1 2.0 0.0 39.615 27.104999999999997
217 0 1 2.0 4.17 0.0 0.0
218 0 1 2.0 6.255 2.085 0.0
219 0 1 2.0 6.255 0.0 2.085
220 0 1 2.0 4.17 2.085 2.085
221 0 1 2.0 4.17 0.0 4.169999999999999
222 0 1 2.0 6.255 2.085 4.169999999999999
223 0 1 2.0 6.255 0.0 6.254999999999999
224 0 1 2.0 4.17 2.085 6.254999999999999
225 0 1 2.0 4.17 0.0 8.339999999999998
226 0 1 2.0 6.255 2.085 8.339999999999998
227 0 1 2.0 6.255 0.0 10.424999999999997
228 0 1 2.0 4.17 2.085 10.424999999999997
229 0 1 2.0 4.17 0.0 12.509999999999998
230 0 1 2.0 6.255 2.085 12.509999999999998
231 0 1 2.0 6.255 0.0 14.594999999999997
232 0 1 2.0 4.17 2.085 14.594999999999997
233 0 1 2.0 4.17 0.0 16.679999999999996
234 0 1 2.0 6.255 2.085 16.679999999999996
235 0 1 2.0 6.255 0.0 18.764999999999997
236 0 1 2.0 4.17 2.085 18.764999999999997
237 0 1 2.0 4.17 0.0 20.849999999999994
238 0 1 2.0 6.255 2.085 20.849999999999994
239 0 1 2.0 6.255 0.0 22.934999999999995
240 0 1 2.0 4.17 2.085 22.934999999999995
241 0 1 2.0 4.17 0.0 25.019999999999996
242 0 1 2.0 6.255 2.085 25.019999999999996
243 0 1 2.0 6.255 0.0 27.104999999999997
244 0 1 2.0 4.17 2.085 27.104999999999997
245 0 1 2.0 4.17 4.170000000000001 0.0
246 0 1 2.0 6.255 6.255000000000002 0.0
247 0 1 2.0 6.255 4.170000000000001 2.085
248 0 1 2.0 4.17 6.255000000000002 2.085
249 0 1 2.0 4.17 4.170000000000001 4.169999999999999
250 0 1 2.0 6.255 6.255000000000002 4.169999999999999
251 0 1 2.0 6.255 4.170000000000001 6.254999999999999
252 0 1 2.0 4.17 6.255000000000002 6.254999999999999
253 0 1 2.0 4.17 4.170000000000001 8.339999999999998
254 0 1 2.0 6.255 6.255000000000002 8.339999999999998
255 0 1 2.0 6.255 4.170000000000001 10.424999999999997
256 0 1 2.0 4.17 6.255000000000002 10.424999999999997
257 0 1 2.0 4.17 4.170000000000001 12.509999999999998
258 0 1 2.0 6.255 6.255000000000002 12.509999999999998
259 0 1 2.0 6.255 4.170000000000001 14.594999999999997
260 0 1 2.0 4.17 6.255000000000002 14.594999999999997
261 0 1 2.0 4.17 4.170000000000001 16.679999999999996
262 0 1 2.0 6.255 6.255000000000002 16.679999999999996
263 0 1 2.0 6.255 4.170000000000001 18.764999999999997
264 0 1 2.0 4.17 6.255000000000002 18.764999999999997
265 0 1 2.0 4.17 4.170000000000001 20.849999999999994
266 0 1 2.0 6.255 6.255000000000002 20.849999999999994
267 0 1 2.0 6.255 4.170000000000001 22.934999999999995
268 0 1 2.0 4.17 6.255000000000002 22.934999999999995
269 0 1 2.0 4.17 4.170000000000001 25.019999999999996
270 0 1 2.0 6.255 6.255000000000002 25.019999999999996
271 0 1 2.0 6.255 4.170000000000001 27.104999999999997
272 0 1 2.0 4.17 8.340000000000002 0.0
273 0 1 2.0 6.255 10.425 0.0
274 0 1 2.0 6.255 8.340000000000002 2.085
275 0 1 2.0 4.17 10.425 2.085
276 0 1 2.0 4.17 8.340000000000002 4.169999999999999
277 0 1 2.0 6.255 10.425 4.169999999999999
278 0 1 2.0 6.255 8.340000000000002 6.254999999999999
279 0 1 2.0 4.17 10.425 6.254999999999999
280 0 1 2.0 4.17 8.340000000000002 8.339999999999998
281 0 1 2.0 6.255 10.425 8.339999999999998
282 0 1 2.0 6.255 8.340000000000002 10.424999999999997
283 0 1 2.0 4.17 10.425 10.424999999999997
284 0 1 2.0 4.17 8.340000000000002 12.509999999999998
285 0 1 2.0 6.255 10.425 12.509999999999998
286 0 1 2.0 6.255 8.340000000000002 14.594999999999997
287 0 1 2.0 4.17 10.425 14.594999999999997
288 0 1 2.0 4.17 8.340000000000002 16.679999999999996
289 0 1 2.0 6.255 10.425 16.679999999999996
290 0 1 2.0 6.255 8.340000000000002 18.764999999999997
291 0 1 2.0 4.17 10.425 18.764999999999997
292 0 1 2.0 4.17 8.340000000000002 20.849999999999994
293 0 1 2.0 6.255 10.425 20.849999999999994
294 0 1 2.0 6.255 8.340000000000002 22.934999999999995
295 0 1 2.0 4.17 12.510000000000003 0.0
296 0 1 2.0 6.255 14.595000000000002 0.0
297 0 1 2.0 6.255 12.510000000000003 2.085
298 0 1 2.0 4.17 14.595000000000002 2.085
299 0 1 2.0 4.17 12.510000000000003 4.169999999999999
300 0 1 2.0 6.255 14.595000000000002 4.169999999999999
301 0 1 2.0 6.255 12.510000000000003 6.254999999999999
302 0 1 2.0 4.17 14.595000000000002 6.254999999999999
303 0 1 2.0 4.17 12.510000000000003 8.339999999999998
304 0 1 2.0 6.255 14.595000000000002 8.339999999999998
305 0 1 2.0 6.255 12.510000000000003 10.424999999999997
306 0 1 2.0 4.17 14.595000000000002 10.424999999999997
307 0 1 2.0 4.17 12.510000000000003 12.509999999999998
308 0 1 2.0 6.255 14.595000000000002 12.509999999999998
309 0 1 2.0 6.255 12.510000000000003 14.594999999999997
310 0 1 2.0 4.17 14.595000000000002 14.594999999999997
311 0 1 2.0 4.17 12.510000000000003 16.679999999999996
312 0 1 2.0 6.255 14.595000000000002 16.679999999999996
313 0 1 2.0 6.255 12.510000000000003 18.764999999999997
314 0 1 2.0 4.17 16.680000000000003 0.0
315 0 1 2.0 6.255 18.765000000000004 0.0
316 0 1 2.0 6.255 16.680000000000003 2.085
317 0 1 2.0 4.17 18.765000000000004 2.085
318 0 1 2.0 4.17 16.680000000000003 4.169999999999999
319 0 1 2.0 6.255 18.765000000000004 4.169999999999999
320 0 1 2.0 6.255 16.680000000000003 6.254999999999999
321 0 1 2.0 4.17 18.765000000000004 6.254999999999999
322 0 1 2.0 4.17 16.680000000000003 8.339999999999998
323 0 1 2.0 6.255 18.765000000000004 8.339999999999998
324 0 1 2.0 6.255 16.680000000000003 10.424999999999997
325 0 1 2.0 4.17 18.765000000000004 10.424999999999997
326 0 1 2.0 4.17 16.680000000000003 12.509999999999998
327 0 1 2.0 6.255 18.765000000000004 12.509999999999998
328 0 1 2.0 6.255 16.680000000000003 14.594999999999997
329 0 1 2.0 4.17 20.849999999999998 0.0
330 0 1 2.0 6.255 22.935000000000002 0.0
331 0 1 2.0 6.255 20.849999999999998 2.085
332 0 1 2.0 4.17 22.935000000000002 2.085
333 0 1 2.0 4.17 20.849999999999998 4.169999999999999
334 0 1 2.0 6.255 22.935000000000002 4.169999999999999
335 0 1 2.0 6.255 20.849999999999998 6.254999999999999
336 0 1 2.0 4.17 22.935000000000002 6.254999999999999
337 0 1 2.0 4.17 20.849999999999998 8.339999999999998
338 0 1 2.0 6.255 22.935000000000002 8.339999999999998
339 0 1 2.0 6.255 20.849999999999998 10.424999999999997
340 0 1 2.0 4.17 22.935000000000002 10.424999999999997
341 0 1 2.0 6.255 22.935000000000002 12.509999999999998
342 0 1 2.0 4.17 25.020000000000007 0.0
343 0 1 2.0 6.255 27.105000000000008 0.0
344 0 1 2.0 6.255 25.020000000000007 2.085
345 0 1 2.0 4.17 27.105000000000008 2.085
346 0 1 2.0 4.17 25.020000000000007 4.169999999999999
347 0 1 2.0 6.255 27.105000000000008 4.169999999999999
348 0 1 2.0 6.255 25.020000000000007 6.254999999999999
349 0 1 2.0 4.17 27.105000000000008 6.254999999999999
350 0 1 2.0 4.17 25.020000000000007 8.339999999999998
351 0 1 2.0 6.255 27.105000000000008 8.339999999999998
352 0 1 2.0 6.255 25.020000000000007 10.424999999999997
353 0 1 2.0 4.17 27.105000000000008 10.424999999999997
354 0 1 2.0 4.17 25.020000000000007 12.509999999999998
355 0 1 2.0 6.255 27.105000000000008 12.509999999999998
356 0 1 2.0 6.255 25.020000000000007 14.594999999999997
357 0 1 2.0 4.17 27.105000000000008 14.594999999999997
358 0 1 2.0 6.255 27.105000000000008 16.679999999999996
359 0 1 2.0 4.17 29.190000000000005 0.0
360 0 1 2.0 6.255 31.275000000000006 0.0
361 0 1 2.0 6.255 29.190000000000005 2.085
362 0 1 2.0 4.17 31.275000000000006 2.085
363 0 1 2.0 4.17 29.190000000000005 4.169999999999999
364 0 1 2.0 6.255 31.275000000000006 4.169999999999999
365 0 1 2.0 6.255 29.190000000000005 6.254999999999999
366 0 1 2.0 4.17 31.275000000000006 6.254999999999999
367 0 1 2.0 4.17 29.190000000000005 8.339999999999998
368 0 1 2.0 6.255 31.275000000000006 8.339999999999998
369 0 1 2.0 6.255 29.190000000000005 10.424999999999997
370 0 1 2.0 4.17 31.275000000000006 10.424999999999997
371 0 1 2.0 4.17 29.190000000000005 12.509999999999998
372 0 1 2.0 6.255 31.275000000000006 12.509999999999998
373 0 1 2.0 6.255 29.190000000000005 14.594999999999997
374 0 1 2.0 4.17 31.275000000000006 14.594999999999997
375 0 1 2.0 4.17 29.190000000000005 16.679999999999996
376 0 1 2.0 6.255 31.275000000000006 16.679999999999996
377 0 1 2.0 6.255 29.190000000000005 18.764999999999997
378 0 1 2.0 4.17 31.275000000000006 18.764999999999997
379 0 1 2.0 6.255 31.275000000000006 20.849999999999994
380 0 1 2.0 4.17 33.36000000000001 0.0
381 0 1 2.0 6.255 35.44500000000001 0.0
382 0 1 2.0 6.255 33.36000000000001 2.085
383 0 1 2.0 4.17 35.44500000000001 2.085
384 0 1 2.0 4.17 33.36000000000001 4.169999999999999
385 0 1 2.0 6.255 35.44500000000001 4.169999999999999
386 0 1 2.0 6.255 33.36000000000001 6.254999999999999
387 0 1 2.0 4.17 35.44500000000001 6.254999999999999
388 0 1 2.0 4.17 33.36000000000001 8.339999999999998
389 0 1 2.0 6.255 35.44500000000001 8.339999999999998
390 0 1 2.0 6.255 33.36000000000001 10.424999999999997
391 0 1 2.0 4.17 35.44500000000001 10.424999999999997
392 0 1 2.0 4.17 33.36000000000001 12.509999999999998
393 0 1 2.0 6.255 35.44500000000001 12.509999999999998
394 0 1 2.0 6.255 33.36000000000001 14.594999999999997
395 0 1 2.0 4.17 35.44500000000001 14.594999999999997
396 0 1 2.0 4.17 33.36000000000001 16.679999999999996
397 0 1 2.0 6.255 35.44500000000001 16.679999999999996
398 0 1 2.0 6.255 33.36000000000001 18.764999999999997
399 0 1 2.0 4.17 35.44500000000001 18.764999999999997
400 0 1 2.0 4.17 33.36000000000001 20.849999999999994
401 0 1 2.0 6.255 35.44500000000001 20.849999999999994
402 0 1 2.0 6.255 33.36000000000001 22.934999999999995
403 0 1 2.0 4.17 35.44500000000001 22.934999999999995
404 0 1 2.0 6.255 35.44500000000001 25.019999999999996
405 0 1 2.0 4.17 37.53 0.0
406 0 1 2.0 6.255 39.615 0.0
407 0 1 2.0 6.255 37.53 2.085
408 0 1 2.0 4.17 39.615 2.085
409 0 1 2.0 4.17 37.53 4.169999999999999
410 0 1 2.0 6.255 39.615 4.169999999999999
411 0 1 2.0 6.255 37.53 6.254999999999999
412 0 1 2.0 4.17 39.615 6.254999999999999
413 0 1 2.0 4.17 37.53 8.339999999999998
414 0 1 2.0 6.255 39.615 8.339999999999998
415 0 1 2.0 6.255 37.53 10.424999999999997
416 0 1 2.0 4.17 39.615 10.424999999999997
417 0 1 2.0 4.17 37.53 12.509999999999998
418 0 1 2.0 6.255 39.615 12.509999999999998
419 0 1 2.0 6.255 37.53 14.594999999999997
420 0 1 2.0 4.17 39.615 14.594999999999997
421 0 1 2.0 4.17 37.53 16.679999999999996
422 0 1 2.0 6.255 39.615 16.679999999999996
423 0 1 2.0 6.255 37.53 18.764999999999997
424 0 1 2.0 4.17 39.615 18.764999999999997
425 0 1 2.0 4.17 37.53 20.849999999999994
426 0 1 2.0 6.255 39.615 20.849999999999994
427 0 1 2.0 6.255 37.53 22.934999999999995
428 0 1 2.0 4.17 39.615 22.934999999999995
429 0 1 2.0 4.17 37.53 25.019999999999996
430 0 1 2.0 6.255 39.615 25.019999999999996
431 0 1 2.0 6.255 37.53 27.104999999999997
432 0 1 2.0 4.17 39.615 27.104999999999997
433 0 1 2.0 8.34 0.0 0.0
434 0 1 2.0 10.425 2.085 0.0
435 0 1 2.0 10.425 0.0 2.085
436 0 1 2.0 8.34 2.085 2.085
437 0 1 2.0 8.34 0.0 4.169999999999999
438 0 1 2.0 10.425 2.085 4.169999999999999
439 0 1 2.0 10.425 0.0 6.254999999999999
440 0 1 2.0 8.34 2.085 6.254999999999999
441 0 1 2.0 8.34 0.0 8.339999999999998
442 0 1 2.0 10.425 2.085 8.339999999999998
443 0 1 2.0 10.425 0.0 10.424999999999997
444 0 1 2.0 8.34 2.085 10.424999999999997
445 0 1 2.0 8.34 0.0 12.509999999999998
446 0 1 2.0 10.425 2.085 12.509999999999998
447 0 1 2.0 10.425 0.0 14.594999999999997
448 0 1 2.0 8.34 2.085 14.594999999999997
449 0 1 2.0 8.34 0.0 16.679999999999996
450 0 1 2.0 10.425 2.085 16.679999999999996
451 0 1 2.0 10.425 0.0 18.764999999999997
452 0 1 2.0 8.34 2.085 18.764999999999997
453 0 1 2.0 8.34 0.0 20.849999999999994
454 0 1 2.0 10.425 2.085 20.849999999999994
455 0 1 2.0 10.425 0.0 22.934999999999995
456 0 1 2.0 8.34 2.085 22.934999999999995
457 0 1 2.0 8.34 0.0 25.019999999999996
458 0 1 2.0 10.425 2.085 25.019999999999996
459 0 1 2.0 10.425 0.0 27.104999999999997
460 0 1 2.0 8.34 2.085 27.104999999999997
461 0 1 2.0 8.34 4.170000000000001 0.0
462 0 1 2.0 10.425 6.255000000000002 0.0
463 0 1 2.0 10.425 4.170000000000001 2.085
464 0 1 2.0 8.34 6.255000000000002 2.085
465 0 1 2.0 8.34 4.170000000000001 4.169999999999999
466 0 1 2.0 10.425 6.255000000000002 4.169999999999999
467 0 1 2.0 10.425 4.170000000000001 6.254999999999999
468 0 1 2.0 8.34 6.255000000000002 6.254999999999999
469 0 1 2.0 8.34 4.170000000000001 8.339999999999998
470 0 1 2.0 10.425 6.255000000000002 8.339999999999998
471 0 1 2.0 10.425 4.170000000000001 10.424999999999997
472 0 1 2.0 8.34 6.255000000000002 10.424999999999997
473 0 1 2.0 8.34 4.170000000000001 12.509999999999998
474 0 1 2.0 10.425 6.255000000000002 12.509999999999998
475 0 1 2.0 10.425 4.170000000000001 14.594999999999997
476 0 1 2.0 8.34 6.255000000000002 14.594999999999997
477 0 1 2.0 8.34 4.170000000000001 16.679999999999996
478 0 1 2.0 10.425 6.255000000000002 16.679999999999996
479 0 1 2.0 10.425 4.170000000000001 18.764999999999997
480 0 1 2.0 8.34 6.255000000000002 18.764999999999997
481 0 1 2.0 8.34 4.170000000000001 20.849999999999994
482 0 1 2.0 10.425 6.255000000000002 20.849999999999994
483 0 1 2.0 10.425 4.170000000000001 22.934999999999995
484 0 1 2.0 8.34 6.255000000000002 22.934999999999995
485 0 1 2.0 8.34 4.170000000000001 25.019999999999996
486 0 1 2.0 10.425 6.255000000000002 25.019999999999996
487 0 1 2.0 10.425 4.170000000000001 27.104999999999997
488 0 1 2.0 8.34 8.340000000000002 0.0
489 0 1 2.0 10.425 10.425 0.0
490 0 1 2.0 10.425 8.340000000000002 2.085
491 0 1 2.0 8.34 10.425 2.085
492 0 1 2.0 8.34 8.340000000000002 4.169999999999999
493 0 1 2.0 10.425 10.425 4.169999999999999
494 0 1 2.0 10.425 8.340000000000002 6.254999999999999
495 0 1 2.0 8.34 10.425 6.254999999999999
496 0 1 2.0 8.34 8.340000000000002 8.339999999999998
497 0 1 2.0 10.425 10.425 8.339999999999998
498 0 1 2.0 10.425 8.340000000000002 10.424999999999997
499 0 1 2.0 8.34 10.425 10.424999999999997
500 0 1 2.0 8.34 8.340000000000002 12.509999999999998
501 0 1 2.0 10.425 10.425 12.509999999999998
502 0 1 2.0 10.425 8.340000000000002 14.594999999999997
503 0 1 2.0 8.34 10.425 14.594999999999997
504 0 1 2.0 8.34 8.340000000000002 16.679999999999996
505 0 1 2.0 10.425 10.425 16.679999999999996
506 0 1 2.0 10.425 8.340000000000002 18.764999999999997
507 0 1 2.0 8.34 10.425 18.764999999999997
508 0 1 2.0 8.34 8.340000000000002 20.849999999999994
509 0 1 2.0 10.425 10.425 20.849999999999994
510 0 1 2.0 10.425 8.340000000000002 22.934999999999995
511 0 1 2.0 8.34 12.510000000000003 0.0
512 0 1 2.0 10.425 14.595000000000002 0.0
513 0 1 2.0 10.425 12.510000000000003 2.085
514 0 1 2.0 8.34 14.595000000000002 2.085
515 0 1 2.0 8.34 12.510000000000003 4.169999999999999
516 0 1 2.0 10.425 14.595000000000002 4.169999999999999
517 0 1 2.0 10.425 12.510000000000003 6.254999999999999
518 0 1 2.0 8.34 14.595000000000002 6.254999999999999
519 0 1 2.0 8.34 12.510000000000003 8.339999999999998
520 0 1 2.0 10.425 14.595000000000002 8.339999999999998
521 0 1 2.0 10.425 12.510000000000003 10.424999999999997
522 0 1 2.0 8.34 14.595000000000002 10.424999999999997
523 0 1 2.0 8.34 12.510000000000003 12.509999999999998
524 0 1 2.0 10.425 14.595000000000002 12.509999999999998
525 0 1 2.0 10.425 12.510000000000003 14.594999999999997
526 0 1 2.0 8.34 14.595000000000002 14.594999999999997
527 0 1 2.0 8.34 12.510000000000003 16.679999999999996
528 0 1 2.0 10.425 14.595000000000002 16.679999999999996
529 0 1 2.0 10.425 12.510000000000003 18.764999999999997
530 0 1 2.0 8.34 16.680000000000003 0.0
531 0 1 2.0 10.425 18.765000000000004 0.0
532 0 1 2.0 10.425 16.680000000000003 2.085
533 0 1 2.0 8.34 18.765000000000004 2.085
534 0 1 2.0 8.34 16.680000000000003 4.169999999999999
535 0 1 2.0 10.425 18.765000000000004 4.169999999999999
536 0 1 2.0 10.425 16.680000000000003 6.254999999999999
537 0 1 2.0 8.34 18.765000000000004 6.254999999999999
538 0 1 2.0 8.34 16.680000000000003 8.339999999999998
539 0 1 2.0 10.425 18.765000000000004 8.339999999999998
540 0 1 2.0 10.425 16.680000000000003 10.424999999999997
541 0 1 2.0 8.34 18.765000000000004 10.424999999999997
542 0 1 2.0 8.34 16.680000000000003 12.509999999999998
543 0 1 2.0 10.425 18.765000000000004 12.509999999999998
544 0 1 2.0 10.425 16.680000000000003 14.594999999999997
545 0 1 2.0 8.34 20.849999999999998 0.0
546 0 1 2.0 10.425 22.935000000000002 0.0
547 0 1 2.0 10.425 20.849999999999998 2.085
548 0 1 2.0 8.34 22.935000000000002 2.085
549 0 1 2.0 8.34 20.849999999999998 4.169999999999999
550 0 1 2.0 10.425 22.935000000000002 4.169999999999999
551 0 1 2.0 10.425 20.849999999999998 6.254999999999999
552 0 1 2.0 8.34 22.935000000000002 6.254999999999999
553 0 1 2.0 8.34 20.849999999999998 8.339999999999998
554 0 1 2.0 10.425 22.935000000000002 8.339999999999998
555 0 1 2.0 10.425 20.849999999999998 10.424999999999997
556 0 1 2.0 8.34 22.935000000000002 10.424999999999997
557 0 1 2.0 10.425 22.935000000000002 12.509999999999998
558 0 1 2.0 8.34 25.020000000000007 0.0
559 0 1 2.0 10.425 27.105000000000008 0.0
560 0 1 2.0 10.425 25.020000000000007 2.085
561 0 1 2.0 8.34 27.105000000000008 2.085
562 0 1 2.0 8.34 25.020000000000007 4.169999999999999
563 0 1 2.0 10.425 27.105000000000008 4.169999999999999
564 0 1 2.0 10.425 25.020000000000007 6.254999999999999
565 0 1 2.0 8.34 27.105000000000008 6.254999999999999
566 0 1 2.0 8.34 25.020000000000007 8.339999999999998
567 0 1 2.0 10.425 27.105000000000008 8.339999999999998
568 0 1 2.0 10.425 25.020000000000007 10.424999999999997
569 0 1 2.0 8.34 27.105000000000008 10.424999999999997
570 0 1 2.0 8.34 25.020000000000007 12.509999999999998
571 0 1 2.0 10.425 27.105000000000008 12.509999999999998
572 0 1 2.0 10.425 25.020000000000007 14.594999999999997
573 0 1 2.0 8.34 27.105000000000008 14.594999999999997
574 0 1 2.0 10.425 27.105000000000008 16.679999999999996
575 0 1 2.0 8.34 29.190000000000005 0.0
576 0 1 2.0 10.425 31.275000000000006 0.0
577 0 1 2.0 10.425 29.190000000000005 2.085
578 0 1 2.0 8.34 31.275000000000006 2.085
579 0 1 2.0 8.34 29.190000000000005 4.169999999999999
580 0 1 2.0 10.425 31.275000000000006 4.169999999999999
581 0 1 2.0 10.425 29.190000000000005 6.254999999999999
582 0 1 2.0 8.34 31.275000000000006 6.254999999999999
583 0 1 2.0 8.34 29.190000000000005 8.339999999999998
584 0 1 2.0 10.425 31.275000000000006 8.339999999999998
585 0 1 2.0 10.425 29.190000000000005 10.424999999999997
586 0 1 2.0 8.34 31.275000000000006 10.424999999999997
587 0 1 2.0 8.34 29.190000000000005 12.509999999999998
588 0 1 2.0 10.425 31.275000000000006 12.509999999999998
589 0 1 2.0 10.425 29.190000000000005 14.594999999999997
590 0 1 2.0 8.34 31.275000000000006 14.594999999999997
591 0 1 2.0 8.34 29.190000000000005 16.679999999999996
592 0 1 2.0 10.425 31.275000000000006 16.679999999999996
593 0 1 2.0 10.425 29.190000000000005 18.764999999999997
594 0 1 2.0 8.34 31.275000000000006 18.764999999999997
595 0 1 2.0 10.425 31.275000000000006 20.849999999999994
596 0 1 2.0 8.34 33.36000000000001 0.0
597 0 1 2.0 10.425 35.44500000000001 0.0
598 0 1 2.0 10.425 33.36000000000001 2.085
599 0 1 2.0 8.34 35.44500000000001 2.085
600 0 1 2.0 8.34 33.36000000000001 4.169999999999999
601 0 1 2.0 10.425 35.44500000000001 4.169999999999999
602 0 1 2.0 10.425 33.36000000000001 6.254999999999999
603 0 1 2.0 8.34 35.44500000000001 6.254999999999999
604 0 1 2.0 8.34 33.36000000000001 8.339999999999998
605 0 1 2.0 10.425 35.44500000000001 8.339999999999998
606 0 1 2.0 10.425 33.36000000000001 10.424999999999997
607 0 1 2.0 8.34 35.44500000000001 10.424999999999997
608 0 1 2.0 8.34 33.36000000000001 12.509999999999998
609 0 1 2.0 10.425 35.44500000000001 12.509999999999998
610 0 1 2.0 10.425 33.36000000000001 14.594999999999997
611 0 1 2.0 8.34 35.44500000000001 14.594999999999997
612 0 1 2.0 8.34 33.36000000000001 16.679999999999996
613 0 1 2.0 10.425 35.44500000000001 16.679999999999996
614 0 1 2.0 10.425 33.36000000000001 18.764999999999997
615 0 1 2.0 8.34 35.44500000000001 18.764999999999997
616 0 1 2.0 8.34 33.36000000000001 20.849999999999994